 Entering Gaussian System, Link 0=g16
 Initial command:
 /opt/apps/chemistry/Gaussian/g16/l1.exe "/tmp/Gau-183495.inp" -scrdir="/tmp/"
 Entering Link 1 = /opt/apps/chemistry/Gaussian/g16/l1.exe PID=    183496.
  
 Copyright (c) 1988,1990,1992,1993,1995,1998,2003,2009,2016,
            Gaussian, Inc.  All Rights Reserved.
  
 This is part of the Gaussian(R) 16 program.  It is based on
 the Gaussian(R) 09 system (copyright 2009, Gaussian, Inc.),
 the Gaussian(R) 03 system (copyright 2003, Gaussian, Inc.),
 the Gaussian(R) 98 system (copyright 1998, Gaussian, Inc.),
 the Gaussian(R) 94 system (copyright 1995, Gaussian, Inc.),
 the Gaussian 92(TM) system (copyright 1992, Gaussian, Inc.),
 the Gaussian 90(TM) system (copyright 1990, Gaussian, Inc.),
 the Gaussian 88(TM) system (copyright 1988, Gaussian, Inc.),
 the Gaussian 86(TM) system (copyright 1986, Carnegie Mellon
 University), and the Gaussian 82(TM) system (copyright 1983,
 Carnegie Mellon University). Gaussian is a federally registered
 trademark of Gaussian, Inc.
  
 This software contains proprietary and confidential information,
 including trade secrets, belonging to Gaussian, Inc.
  
 This software is provided under written license and may be
 used, copied, transmitted, or stored only in accord with that
 written license.
  
 The following legend is applicable only to US Government
 contracts under FAR:
  
                    RESTRICTED RIGHTS LEGEND
  
 Use, reproduction and disclosure by the US Government is
 subject to restrictions as set forth in subparagraphs (a)
 and (c) of the Commercial Computer Software - Restricted
 Rights clause in FAR 52.227-19.
  
 Gaussian, Inc.
 340 Quinnipiac St., Bldg. 40, Wallingford CT 06492
  
  
 ---------------------------------------------------------------
 Warning -- This program may not be used in any manner that
 competes with the business of Gaussian, Inc. or will provide
 assistance to any competitor of Gaussian, Inc.  The licensee
 of this program is prohibited from giving any competitor of
 Gaussian, Inc. access to this program.  By using this program,
 the user acknowledges that Gaussian, Inc. is engaged in the
 business of creating and licensing software in the field of
 computational chemistry and represents and warrants to the
 licensee that it is not a competitor of Gaussian, Inc. and that
 it will not use this program in any manner prohibited above.
 ---------------------------------------------------------------
  

 Cite this work as:
 Gaussian 16, Revision A.03,
 M. J. Frisch, G. W. Trucks, H. B. Schlegel, G. E. Scuseria, 
 M. A. Robb, J. R. Cheeseman, G. Scalmani, V. Barone, 
 G. A. Petersson, H. Nakatsuji, X. Li, M. Caricato, A. V. Marenich, 
 J. Bloino, B. G. Janesko, R. Gomperts, B. Mennucci, H. P. Hratchian, 
 J. V. Ortiz, A. F. Izmaylov, J. L. Sonnenberg, D. Williams-Young, 
 F. Ding, F. Lipparini, F. Egidi, J. Goings, B. Peng, A. Petrone, 
 T. Henderson, D. Ranasinghe, V. G. Zakrzewski, J. Gao, N. Rega, 
 G. Zheng, W. Liang, M. Hada, M. Ehara, K. Toyota, R. Fukuda, 
 J. Hasegawa, M. Ishida, T. Nakajima, Y. Honda, O. Kitao, H. Nakai, 
 T. Vreven, K. Throssell, J. A. Montgomery, Jr., J. E. Peralta, 
 F. Ogliaro, M. J. Bearpark, J. J. Heyd, E. N. Brothers, K. N. Kudin, 
 V. N. Staroverov, T. A. Keith, R. Kobayashi, J. Normand, 
 K. Raghavachari, A. P. Rendell, J. C. Burant, S. S. Iyengar, 
 J. Tomasi, M. Cossi, J. M. Millam, M. Klene, C. Adamo, R. Cammi, 
 J. W. Ochterski, R. L. Martin, K. Morokuma, O. Farkas, 
 J. B. Foresman, and D. J. Fox, Gaussian, Inc., Wallingford CT, 2016.
 
 ******************************************
 Gaussian 16:  ES64L-G16RevA.03 25-Dec-2016
                 8-Mar-2019 
 ******************************************
 %mem=32GB
 %nprocshared=4
 Will use up to    4 processors via shared memory.
 %Chk=/users/psyche/volatile/gaussian/chk/PM7_IP_EA/A1_pi1.chk
 ----------------------------------------------------------------------
 # PM7 # Geom=Checkpoint # SCRF=(SMD,Solvent=Acetonitrile) SCF=(MaxCycl
 e=500,FullDiagonalization) # Integral=(Grid=UltraFineGrid) CPHF=(MaxIn
 v=20000)
 ----------------------------------------------------------------------
 1/29=2,38=1,172=1/1;
 2/12=2,40=1/2;
 3/5=2,14=-4,25=1,41=4200000,70=32201,72=2,75=-5/1,2,3;
 4/35=1/1;
 5/5=2,7=500,16=1,35=1,38=5,53=2/2;
 6/7=2,8=2,9=2,10=2,28=1/1;
 99/5=1,9=1/99;
 ----------------------
 IP of neutral geometry
 ----------------------
 Structure from the checkpoint file:  "/users/psyche/volatile/gaussian/chk/PM7_IP_EA/A1_pi1.chk"
 Charge =  1 Multiplicity = 2
 Redundant internal coordinates found in file.  (old form).
 C,0,5.8091939753,-0.33666897,-0.1464951736
 C,0,5.1737420308,-0.4261646128,-1.360303209
 N,0,3.7927732901,-0.3233996424,-1.3124887486
 C,0,3.3536258335,-0.1557930779,-0.0707931301
 S,0,4.6590341009,-0.1146880079,1.1170487816
 C,0,1.9682482773,-0.0239944428,0.2717958766
 S,0,0.6631454019,-0.2731901832,-0.8912442164
 C,0,-0.5006303529,0.0774408333,0.355725047
 C,0,0.1507771382,0.3551069102,1.5371877355
 N,0,1.5315081606,0.2915051366,1.4839324895
 C,0,-1.9256552388,0.0855482662,0.1122918845
 C,0,-2.5777055561,-1.0520928904,-0.3745948095
 C,0,-3.9511127151,-1.0202810509,-0.6004989239
 C,0,-4.6776274797,0.1405439918,-0.3434103648
 C,0,-4.0300694081,1.2738874791,0.14529521
 C,0,-2.6580948764,1.2491919644,0.3754908009
 H,0,6.8749013036,-0.3943550067,0.032761813
 H,0,5.6406407873,-0.5671914977,-2.3335036514
 H,0,-0.3130771969,0.6106797398,2.4891982728
 H,0,-2.0205397174,-1.9702313369,-0.5712773015
 H,0,-4.4589302815,-1.9089349345,-0.97914096
 H,0,-5.7535190025,0.1620106992,-0.5232318768
 H,0,-4.5988990345,2.1831153306,0.3473724897
 H,0,-2.1518294395,2.1378553029,0.7577819648
 Recover connectivity data from disk.
                           ----------------------------
                           !    Current Parameters    !
                           ! (Angstroms and Degrees)  !
 --------------------------                            --------------------------
 ! Name  Definition              Value                                          !
 --------------------------------------------------------------------------------
 ! R1    R(1,2)                  1.373                                          !
 ! R2    R(1,5)                  1.723                                          !
 ! R3    R(1,17)                 1.0822                                         !
 ! R4    R(2,3)                  1.3856                                         !
 ! R5    R(2,18)                 1.0886                                         !
 ! R6    R(3,4)                  1.3277                                         !
 ! R7    R(4,5)                  1.7654                                         !
 ! R8    R(4,6)                  1.4332                                         !
 ! R9    R(6,7)                  1.7658                                         !
 ! R10   R(6,10)                 1.3265                                         !
 ! R11   R(7,8)                  1.7413                                         !
 ! R12   R(8,9)                  1.3774                                         !
 ! R13   R(8,11)                 1.4457                                         !
 ! R14   R(9,10)                 1.3832                                         !
 ! R15   R(9,19)                 1.0894                                         !
 ! R16   R(11,12)                1.3987                                         !
 ! R17   R(11,16)                1.3999                                         !
 ! R18   R(12,13)                1.3922                                         !
 ! R19   R(12,20)                1.0918                                         !
 ! R20   R(13,14)                1.3934                                         !
 ! R21   R(13,21)                1.0913                                         !
 ! R22   R(14,15)                1.3938                                         !
 ! R23   R(14,22)                1.091                                          !
 ! R24   R(15,16)                1.3914                                         !
 ! R25   R(15,23)                1.0914                                         !
 ! R26   R(16,24)                1.0919                                         !
 ! A1    A(2,1,5)              110.3506                                         !
 ! A2    A(2,1,17)             126.7781                                         !
 ! A3    A(5,1,17)             122.8712                                         !
 ! A4    A(1,2,3)              115.2093                                         !
 ! A5    A(1,2,18)             126.8908                                         !
 ! A6    A(3,2,18)             117.8999                                         !
 ! A7    A(2,3,4)              111.7951                                         !
 ! A8    A(3,4,5)              112.8066                                         !
 ! A9    A(3,4,6)              123.7036                                         !
 ! A10   A(5,4,6)              123.4897                                         !
 ! A11   A(1,5,4)               89.8383                                         !
 ! A12   A(4,6,7)              122.9581                                         !
 ! A13   A(4,6,10)             123.9571                                         !
 ! A14   A(7,6,10)             113.0846                                         !
 ! A15   A(6,7,8)               89.6496                                         !
 ! A16   A(7,8,9)              109.8009                                         !
 ! A17   A(7,8,11)             122.6373                                         !
 ! A18   A(9,8,11)             127.5503                                         !
 ! A19   A(8,9,10)             115.4533                                         !
 ! A20   A(8,9,19)             126.5475                                         !
 ! A21   A(10,9,19)            117.9988                                         !
 ! A22   A(6,10,9)             112.0103                                         !
 ! A23   A(8,11,12)            120.9013                                         !
 ! A24   A(8,11,16)            119.2566                                         !
 ! A25   A(12,11,16)           119.8415                                         !
 ! A26   A(11,12,13)           119.8524                                         !
 ! A27   A(11,12,20)           120.5815                                         !
 ! A28   A(13,12,20)           119.5637                                         !
 ! A29   A(12,13,14)           120.2295                                         !
 ! A30   A(12,13,21)           119.784                                          !
 ! A31   A(14,13,21)           119.9865                                         !
 ! A32   A(13,14,15)           119.9924                                         !
 ! A33   A(13,14,22)           120.0108                                         !
 ! A34   A(15,14,22)           119.9968                                         !
 ! A35   A(14,15,16)           120.1129                                         !
 ! A36   A(14,15,23)           120.0132                                         !
 ! A37   A(16,15,23)           119.8739                                         !
 ! A38   A(11,16,15)           119.9703                                         !
 ! A39   A(11,16,24)           119.9839                                         !
 ! A40   A(15,16,24)           120.0454                                         !
 ! D1    D(5,1,2,3)             -0.0333                                         !
 ! D2    D(5,1,2,18)           179.9899                                         !
 ! D3    D(17,1,2,3)           179.8489                                         !
 ! D4    D(17,1,2,18)           -0.1279                                         !
 ! D5    D(2,1,5,4)              0.0685                                         !
 ! D6    D(17,1,5,4)          -179.8192                                         !
 ! D7    D(1,2,3,4)             -0.038                                          !
 ! D8    D(18,2,3,4)           179.941                                          !
 ! D9    D(2,3,4,5)              0.0907                                         !
 ! D10   D(2,3,4,6)           -179.8234                                         !
 ! D11   D(3,4,5,1)             -0.0933                                         !
 ! D12   D(6,4,5,1)            179.8211                                         !
 ! D13   D(3,4,6,7)              8.0165                                         !
 ! D14   D(3,4,6,10)          -172.1604                                         !
 ! D15   D(5,4,6,7)           -171.8886                                         !
 ! D16   D(5,4,6,10)             7.9344                                         !
 ! D17   D(4,6,7,8)            179.9644                                         !
 ! D18   D(10,6,7,8)             0.124                                          !
 ! D19   D(4,6,10,9)           179.8376                                         !
 ! D20   D(7,6,10,9)            -0.3238                                         !
 ! D21   D(6,7,8,9)              0.11                                           !
 ! D22   D(6,7,8,11)           178.9614                                         !
 ! D23   D(7,8,9,10)            -0.3217                                         !
 ! D24   D(7,8,9,19)           179.9311                                         !
 ! D25   D(11,8,9,10)         -179.1017                                         !
 ! D26   D(11,8,9,19)            1.1511                                         !
 ! D27   D(7,8,11,12)           58.4146                                         !
 ! D28   D(7,8,11,16)         -121.8869                                         !
 ! D29   D(9,8,11,12)         -122.9485                                         !
 ! D30   D(9,8,11,16)           56.75                                           !
 ! D31   D(8,9,10,6)             0.4246                                         !
 ! D32   D(19,9,10,6)         -179.8055                                         !
 ! D33   D(8,11,12,13)         179.9637                                         !
 ! D34   D(8,11,12,20)           0.5233                                         !
 ! D35   D(16,11,12,13)          0.267                                          !
 ! D36   D(16,11,12,20)       -179.1734                                         !
 ! D37   D(8,11,16,15)         179.9341                                         !
 ! D38   D(8,11,16,24)           0.1576                                         !
 ! D39   D(12,11,16,15)         -0.3642                                         !
 ! D40   D(12,11,16,24)        179.8592                                         !
 ! D41   D(11,12,13,14)          0.0074                                         !
 ! D42   D(11,12,13,21)       -179.9194                                         !
 ! D43   D(20,12,13,14)        179.4535                                         !
 ! D44   D(20,12,13,21)         -0.4733                                         !
 ! D45   D(12,13,14,15)         -0.1857                                         !
 ! D46   D(12,13,14,22)        179.9024                                         !
 ! D47   D(21,13,14,15)        179.741                                          !
 ! D48   D(21,13,14,22)         -0.171                                          !
 ! D49   D(13,14,15,16)          0.0881                                         !
 ! D50   D(13,14,15,23)       -179.9619                                         !
 ! D51   D(22,14,15,16)       -179.9999                                         !
 ! D52   D(22,14,15,23)         -0.0499                                         !
 ! D53   D(14,15,16,11)          0.1868                                         !
 ! D54   D(14,15,16,24)        179.9632                                         !
 ! D55   D(23,15,16,11)       -179.7633                                         !
 ! D56   D(23,15,16,24)          0.0131                                         !
 --------------------------------------------------------------------------------
                          Input orientation:                          
 ---------------------------------------------------------------------
 Center     Atomic      Atomic             Coordinates (Angstroms)
 Number     Number       Type             X           Y           Z
 ---------------------------------------------------------------------
      1          6           0        5.809194   -0.336669   -0.146495
      2          6           0        5.173742   -0.426165   -1.360303
      3          7           0        3.792773   -0.323400   -1.312489
      4          6           0        3.353626   -0.155793   -0.070793
      5         16           0        4.659034   -0.114688    1.117049
      6          6           0        1.968248   -0.023994    0.271796
      7         16           0        0.663145   -0.273190   -0.891244
      8          6           0       -0.500630    0.077441    0.355725
      9          6           0        0.150777    0.355107    1.537188
     10          7           0        1.531508    0.291505    1.483932
     11          6           0       -1.925655    0.085548    0.112292
     12          6           0       -2.577706   -1.052093   -0.374595
     13          6           0       -3.951113   -1.020281   -0.600499
     14          6           0       -4.677627    0.140544   -0.343410
     15          6           0       -4.030069    1.273887    0.145295
     16          6           0       -2.658095    1.249192    0.375491
     17          1           0        6.874901   -0.394355    0.032762
     18          1           0        5.640641   -0.567191   -2.333504
     19          1           0       -0.313077    0.610680    2.489198
     20          1           0       -2.020540   -1.970231   -0.571277
     21          1           0       -4.458930   -1.908935   -0.979141
     22          1           0       -5.753519    0.162011   -0.523232
     23          1           0       -4.598899    2.183115    0.347372
     24          1           0       -2.151829    2.137855    0.757782
 ---------------------------------------------------------------------
                    Distance matrix (angstroms):
                    1          2          3          4          5
     1  C    0.000000
     2  C    1.373003   0.000000
     3  N    2.329307   1.385612   0.000000
     4  C    2.463384   2.246945   1.327686   0.000000
     5  S    1.722988   2.549356   2.587783   1.765432   0.000000
     6  C    3.876286   3.619486   2.434850   1.433181   2.821880
     7  S    5.200048   4.537499   3.158249   2.815245   4.474985
     8  C    6.343311   5.949527   4.623519   3.884792   5.219067
     9  C    5.943991   5.851155   4.673881   3.620064   4.552099
    10  N    4.620768   4.676601   3.648479   2.436670   3.175061
    11  C    7.750686   7.268551   5.907424   5.287965   6.663915
    12  C    8.420448   7.838900   6.480250   6.006358   7.448096
    13  C    9.794745   9.175688   7.807711   7.374763   8.826364
    14  C   10.499521   9.919915   8.538269   8.041341   9.453641
    15  C    9.974474   9.479829   8.116239   7.523938   8.852851
    16  C    8.630319   8.194966   6.850987   6.189825   7.480004
    17  H    1.082217   2.198996   3.363666   3.530866   2.482732
    18  H    2.205574   1.088578   2.125211   3.243385   3.615885
    19  H    6.732500   6.782248   5.673036   4.537152   5.208728
    20  H    8.009600   7.400297   6.087369   5.694236   7.135138
    21  H   10.421118   9.753577   8.409260   8.058203   9.526311
    22  H   11.579592  10.975048   9.591155   9.123913  10.544588
    23  H   10.720150  10.258119   8.913917   8.299880   9.569829
    24  H    8.385635   8.045153   6.758853   6.021412   7.182680
                    6          7          8          9         10
     6  C    0.000000
     7  S    1.765801   0.000000
     8  C    2.472386   1.741335   0.000000
     9  C    2.246806   2.560188   1.377419   0.000000
    10  N    1.326483   2.591216   2.334151   1.383221   0.000000
    11  C    3.898708   2.799583   1.445691   2.532698   3.725023
    12  C    4.705370   3.372941   2.474562   3.616593   4.705849
    13  C    6.065667   4.683381   3.745022   4.825650   6.010388
    14  C    6.676318   5.384715   4.235573   5.186152   6.474205
    15  C    6.138429   5.049171   3.732654   4.501222   5.804151
    16  C    4.799459   3.866898   2.455208   3.168389   4.438308
    17  H    4.926413   6.281272   7.397659   6.931005   5.579261
    18  H    4.535319   5.190569   6.735185   6.780228   5.674077
    19  H    3.244092   3.627896   2.207086   1.089405   2.124836
    20  H    4.517637   3.191315   2.713378   3.816732   4.685764
    21  H    6.813697   5.377643   4.625548   5.719021   6.840615
    22  H    7.764815   6.441926   5.326590   6.256463   7.557585
    23  H    6.928526   5.937737   4.607574   5.226538   6.515508
    24  H    4.678121   4.056663   2.670846   3.014575   4.183692
                   11         12         13         14         15
    11  C    0.000000
    12  C    1.398734   0.000000
    13  C    2.415245   1.392226   0.000000
    14  C    2.789989   2.415166   1.393353   0.000000
    15  C    2.416981   2.791027   2.413639   1.393783   0.000000
    16  C    1.399931   2.421777   2.788361   2.413386   1.391371
    17  H    8.813990   9.484215  10.862568  11.571022  11.032411
    18  H    7.978522   8.462486   9.757578  10.532237  10.151682
    19  H    2.919907   4.011816   5.043963   5.224366   4.444070
    20  H    2.168525   1.091831   2.151830   3.401090   3.882782
    21  H    3.403920   2.153755   1.091308   2.156930   3.402740
    22  H    3.881015   3.403224   2.156954   1.091027   2.157192
    23  H    3.406066   3.882400   3.402916   2.157655   1.091374
    24  H    2.163279   3.411659   3.880228   3.403165   2.156239
                   16         17         18         19         20
    16  C    0.000000
    17  H    9.679707   0.000000
    18  H    8.916665   2.674413   0.000000
    19  H    3.220957   7.662324   7.751941   0.000000
    20  H    3.415777   9.054122   7.985465   4.352360   0.000000
    21  H    3.879665  11.479270  10.277933   5.963718   2.473026
    22  H    3.401664  12.652892  11.560091   6.234938   4.299291
    23  H    2.154002  11.763946  10.936154   5.042642   4.974147
    24  H    1.091867   9.403170   8.808854   2.951453   4.319724
                   21         22         23         24
    21  H    0.000000
    22  H    2.484478   0.000000
    23  H    4.303964   2.485149   0.000000
    24  H    4.971532   4.303153   2.481660   0.000000
 Stoichiometry    C12H8N2S2(1+,2)
 Framework group  C1[X(C12H8N2S2)]
 Deg. of freedom    66
 Full point group                 C1      NOp   1
 Largest Abelian subgroup         C1      NOp   1
 Largest concise Abelian subgroup C1      NOp   1
                         Standard orientation:                         
 ---------------------------------------------------------------------
 Center     Atomic      Atomic             Coordinates (Angstroms)
 Number     Number       Type             X           Y           Z
 ---------------------------------------------------------------------
      1          6           0       -5.081294   -0.235964    0.050503
      2          6           0       -4.436331   -1.372753    0.471065
      3          7           0       -3.052734   -1.298310    0.477156
      4          6           0       -2.621027   -0.112784    0.063745
      5         16           0       -3.937120    0.986040   -0.357245
      6          6           0       -1.235174    0.239370   -0.033245
      7         16           0        0.070584   -0.928188    0.190044
      8          6           0        1.234574    0.335063   -0.095569
      9          6           0        0.582861    1.525247   -0.332249
     10          7           0       -0.798602    1.463043   -0.300803
     11          6           0        2.661212    0.105783   -0.049160
     12          6           0        3.265074   -0.836096   -0.888607
     13          6           0        4.641055   -1.038740   -0.826140
     14          6           0        5.417970   -0.306831    0.069486
     15          6           0        4.818373    0.634760    0.904066
     16          6           0        3.444104    0.844361    0.846044
     17          1           0       -6.150590   -0.089594   -0.029338
     18          1           0       -4.897707   -2.304957    0.792206
     19          1           0        1.046807    2.488540   -0.541114
     20          1           0        2.667945   -1.409174   -1.600728
     21          1           0        5.111213   -1.772948   -1.482527
     22          1           0        6.495751   -0.469654    0.116568
     23          1           0        5.426671    1.208675    1.605273
     24          1           0        2.975454    1.581840    1.500770
 ---------------------------------------------------------------------
 Rotational constants (GHZ):           1.7847259           0.1813514           0.1713690
 Standard basis: VSTO-6G (5D, 7F)
 There are    84 symmetry adapted cartesian basis functions of A   symmetry.
 There are    82 symmetry adapted basis functions of A   symmetry.
    82 basis functions,   504 primitive gaussians,    84 cartesian basis functions
    39 alpha electrons       38 beta electrons
       nuclear repulsion energy       493.8582858180 Hartrees.
 Integral buffers will be    131072 words long.
 Regular integral format.
 Two-electron integral symmetry is turned off.
 Nuclear repulsion after empirical dispersion term =      493.8509641257 Hartrees.
 ------------------------------------------------------------------------------
 Polarizable Continuum Model (PCM)
 =================================
 Model                : PCM.
 Atomic radii         : SMD-Coulomb.
 Polarization charges : Total charges.
 Charge compensation  : None.
 Solution method      : On-the-fly selection.
 Cavity type          : VdW (van der Waals Surface) (Alpha=1.000).
 Cavity algorithm     : GePol (No added spheres)
                        Default sphere list used, NSphG=   24.
                        Lebedev-Laikov grids with approx.  5.0 points / Ang**2.
                        Smoothing algorithm: York/Karplus (Gamma=1.0000).
                        Polarization charges: spherical gaussians, with
                                              point-specific exponents (IZeta= 3).
                        Self-potential: point-specific (ISelfS= 7).
                        Self-field    : sphere-specific E.n sum rule (ISelfD= 2).
 Solvent              : Acetonitrile, Eps=  35.688000 Eps(inf)=   1.806874
 ------------------------------------------------------------------------------
 ------------------------------------------------------------------------------
 Atomic radii for non-electrostatic terms: SMD-CDS.
 ------------------------------------------------------------------------------
 Nuclear repulsion after PCM non-electrostatic terms =      493.8471416225 Hartrees.
 Do NDO integrals.
 One-electron integrals computed using PRISM.
 NBasis=    82 RedAO= F EigKep=  0.00D+00  NBF=    82
 NBsUse=    82 1.00D-04 EigRej=  0.00D+00 NBFU=    82
 Nonelectrostatic core Hamiltonian diagonalized for initial guess.
 Initial guess <Sx>= 0.0000 <Sy>= 0.0000 <Sz>= 0.5000 <S**2>= 0.7500 S= 0.5000
 Keep J ints in memory in canonical form, NReq=2161028.
 Overlap will be assumed to be unity.
 Requested convergence on RMS density matrix=1.00D-08 within 500 cycles.
 Requested convergence on MAX density matrix=1.00D-06.
 Requested convergence on             energy=1.00D-06.
 No special actions if energy rises.
 Inv3:  Mode=1 IEnd=    14348907.
 Iteration    1 A*A^-1 deviation from unit magnitude is 3.22D-15 for   1270.
 Iteration    1 A*A^-1 deviation from orthogonality  is 2.07D-15 for   1076   1009.
 Iteration    1 A^-1*A deviation from unit magnitude is 3.11D-15 for    200.
 Iteration    1 A^-1*A deviation from orthogonality  is 1.86D-15 for   1723    607.
 Error on total polarization charges = -0.00043
 SCF Done:  E(UPM7) =  0.394788722561     A.U. after   31 cycles
            NFock= 31  Conv=0.44D-08     -V/T= 1.0030
 <Sx>= 0.0000 <Sy>= 0.0000 <Sz>= 0.5000 <S**2>= 0.9022 S= 0.5734
 <L.S>=  0.00000000000    
 SMD-CDS (non-electrostatic) energy       (kcal/mol) =      -2.40
 (included in total energy above)
 Annihilation of the first spin contaminant:
 S**2 before annihilation     0.9022,   after     0.7671

 **********************************************************************

            Population analysis using the SCF density.

 **********************************************************************

 Orbital symmetries:
 Alpha Orbitals:
       Occupied  (A) (A) (A) (A) (A) (A) (A) (A) (A) (A) (A) (A)
                 (A) (A) (A) (A) (A) (A) (A) (A) (A) (A) (A) (A)
                 (A) (A) (A) (A) (A) (A) (A) (A) (A) (A) (A) (A)
                 (A) (A) (A)
       Virtual   (A) (A) (A) (A) (A) (A) (A) (A) (A) (A) (A) (A)
                 (A) (A) (A) (A) (A) (A) (A) (A) (A) (A) (A) (A)
                 (A) (A) (A) (A) (A) (A) (A) (A) (A) (A) (A) (A)
                 (A) (A) (A) (A) (A) (A) (A)
 Beta  Orbitals:
       Occupied  (A) (A) (A) (A) (A) (A) (A) (A) (A) (A) (A) (A)
                 (A) (A) (A) (A) (A) (A) (A) (A) (A) (A) (A) (A)
                 (A) (A) (A) (A) (A) (A) (A) (A) (A) (A) (A) (A)
                 (A) (A)
       Virtual   (A) (A) (A) (A) (A) (A) (A) (A) (A) (A) (A) (A)
                 (A) (A) (A) (A) (A) (A) (A) (A) (A) (A) (A) (A)
                 (A) (A) (A) (A) (A) (A) (A) (A) (A) (A) (A) (A)
                 (A) (A) (A) (A) (A) (A) (A) (A)
 The electronic state is 2-A.
 Alpha  occ. eigenvalues --   -1.38455  -1.36713  -1.14263  -1.07427  -1.05658
 Alpha  occ. eigenvalues --   -1.02568  -0.96644  -0.96052  -0.91652  -0.82338
 Alpha  occ. eigenvalues --   -0.80681  -0.78220  -0.76650  -0.71853  -0.69315
 Alpha  occ. eigenvalues --   -0.66639  -0.62858  -0.60306  -0.59925  -0.58159
 Alpha  occ. eigenvalues --   -0.57282  -0.56117  -0.55025  -0.54139  -0.53377
 Alpha  occ. eigenvalues --   -0.52234  -0.51389  -0.48920  -0.47007  -0.45878
 Alpha  occ. eigenvalues --   -0.45280  -0.43534  -0.43168  -0.40938  -0.40722
 Alpha  occ. eigenvalues --   -0.39828  -0.37676  -0.37052  -0.35666
 Alpha virt. eigenvalues --   -0.08906  -0.07031  -0.05999  -0.04962  -0.04588
 Alpha virt. eigenvalues --   -0.04081  -0.03143  -0.02908  -0.02239  -0.01309
 Alpha virt. eigenvalues --   -0.00935  -0.00698  -0.00566   0.00134   0.00263
 Alpha virt. eigenvalues --    0.01225   0.03047   0.03201   0.03977   0.05303
 Alpha virt. eigenvalues --    0.06814   0.07991   0.09386   0.10478   0.12067
 Alpha virt. eigenvalues --    0.12487   0.14263   0.14964   0.15132   0.16186
 Alpha virt. eigenvalues --    0.17106   0.17256   0.17513   0.18097   0.18281
 Alpha virt. eigenvalues --    0.19100   0.19916   0.20109   0.20690   0.21748
 Alpha virt. eigenvalues --    0.21883   0.22020   0.22360
  Beta  occ. eigenvalues --   -1.39291  -1.36019  -1.14224  -1.06554  -1.04791
  Beta  occ. eigenvalues --   -1.02022  -0.96528  -0.95870  -0.90944  -0.81841
  Beta  occ. eigenvalues --   -0.80396  -0.78007  -0.76415  -0.71712  -0.69123
  Beta  occ. eigenvalues --   -0.66444  -0.62714  -0.60039  -0.59280  -0.57839
  Beta  occ. eigenvalues --   -0.57164  -0.55872  -0.54892  -0.53545  -0.53026
  Beta  occ. eigenvalues --   -0.52165  -0.51218  -0.48295  -0.46806  -0.45838
  Beta  occ. eigenvalues --   -0.45015  -0.43232  -0.42851  -0.40719  -0.39903
  Beta  occ. eigenvalues --   -0.37646  -0.37189  -0.36261
  Beta virt. eigenvalues --   -0.16015  -0.07796  -0.06888  -0.04740  -0.04389
  Beta virt. eigenvalues --   -0.03890  -0.03170  -0.02928  -0.02655  -0.01671
  Beta virt. eigenvalues --   -0.00955  -0.00799  -0.00691  -0.00515   0.00614
  Beta virt. eigenvalues --    0.00748   0.01854   0.03373   0.03673   0.04070
  Beta virt. eigenvalues --    0.05441   0.06850   0.08033   0.09464   0.10617
  Beta virt. eigenvalues --    0.12137   0.12610   0.14288   0.14983   0.15162
  Beta virt. eigenvalues --    0.16215   0.17123   0.17338   0.17530   0.18114
  Beta virt. eigenvalues --    0.18529   0.19014   0.19928   0.20085   0.20685
  Beta virt. eigenvalues --    0.21767   0.21901   0.22007   0.22361
          Condensed to atoms (all electrons):
               1          2          3          4          5          6
     1  C    4.370140   0.000000   0.000000   0.000000   0.000000   0.000000
     2  C    0.000000   3.816968   0.000000   0.000000   0.000000   0.000000
     3  N    0.000000   0.000000   5.395791   0.000000   0.000000   0.000000
     4  C    0.000000   0.000000   0.000000   3.963217   0.000000   0.000000
     5  S    0.000000   0.000000   0.000000   0.000000   5.112820   0.000000
     6  C    0.000000   0.000000   0.000000   0.000000   0.000000   4.047748
     7  S    0.000000   0.000000   0.000000   0.000000   0.000000   0.000000
     8  C    0.000000   0.000000   0.000000   0.000000   0.000000   0.000000
     9  C    0.000000   0.000000   0.000000   0.000000   0.000000   0.000000
    10  N    0.000000   0.000000   0.000000   0.000000   0.000000   0.000000
    11  C    0.000000   0.000000   0.000000   0.000000   0.000000   0.000000
    12  C    0.000000   0.000000   0.000000   0.000000   0.000000   0.000000
    13  C    0.000000   0.000000   0.000000   0.000000   0.000000   0.000000
    14  C    0.000000   0.000000   0.000000   0.000000   0.000000   0.000000
    15  C    0.000000   0.000000   0.000000   0.000000   0.000000   0.000000
    16  C    0.000000   0.000000   0.000000   0.000000   0.000000   0.000000
    17  H    0.000000   0.000000   0.000000   0.000000   0.000000   0.000000
    18  H    0.000000   0.000000   0.000000   0.000000   0.000000   0.000000
    19  H    0.000000   0.000000   0.000000   0.000000   0.000000   0.000000
    20  H    0.000000   0.000000   0.000000   0.000000   0.000000   0.000000
    21  H    0.000000   0.000000   0.000000   0.000000   0.000000   0.000000
    22  H    0.000000   0.000000   0.000000   0.000000   0.000000   0.000000
    23  H    0.000000   0.000000   0.000000   0.000000   0.000000   0.000000
    24  H    0.000000   0.000000   0.000000   0.000000   0.000000   0.000000
               7          8          9         10         11         12
     1  C    0.000000   0.000000   0.000000   0.000000   0.000000   0.000000
     2  C    0.000000   0.000000   0.000000   0.000000   0.000000   0.000000
     3  N    0.000000   0.000000   0.000000   0.000000   0.000000   0.000000
     4  C    0.000000   0.000000   0.000000   0.000000   0.000000   0.000000
     5  S    0.000000   0.000000   0.000000   0.000000   0.000000   0.000000
     6  C    0.000000   0.000000   0.000000   0.000000   0.000000   0.000000
     7  S    5.573748   0.000000   0.000000   0.000000   0.000000   0.000000
     8  C    0.000000   4.161978   0.000000   0.000000   0.000000   0.000000
     9  C    0.000000   0.000000   4.008512   0.000000   0.000000   0.000000
    10  N    0.000000   0.000000   0.000000   5.353239   0.000000   0.000000
    11  C    0.000000   0.000000   0.000000   0.000000   4.043544   0.000000
    12  C    0.000000   0.000000   0.000000   0.000000   0.000000   4.135955
    13  C    0.000000   0.000000   0.000000   0.000000   0.000000   0.000000
    14  C    0.000000   0.000000   0.000000   0.000000   0.000000   0.000000
    15  C    0.000000   0.000000   0.000000   0.000000   0.000000   0.000000
    16  C    0.000000   0.000000   0.000000   0.000000   0.000000   0.000000
    17  H    0.000000   0.000000   0.000000   0.000000   0.000000   0.000000
    18  H    0.000000   0.000000   0.000000   0.000000   0.000000   0.000000
    19  H    0.000000   0.000000   0.000000   0.000000   0.000000   0.000000
    20  H    0.000000   0.000000   0.000000   0.000000   0.000000   0.000000
    21  H    0.000000   0.000000   0.000000   0.000000   0.000000   0.000000
    22  H    0.000000   0.000000   0.000000   0.000000   0.000000   0.000000
    23  H    0.000000   0.000000   0.000000   0.000000   0.000000   0.000000
    24  H    0.000000   0.000000   0.000000   0.000000   0.000000   0.000000
              13         14         15         16         17         18
     1  C    0.000000   0.000000   0.000000   0.000000   0.000000   0.000000
     2  C    0.000000   0.000000   0.000000   0.000000   0.000000   0.000000
     3  N    0.000000   0.000000   0.000000   0.000000   0.000000   0.000000
     4  C    0.000000   0.000000   0.000000   0.000000   0.000000   0.000000
     5  S    0.000000   0.000000   0.000000   0.000000   0.000000   0.000000
     6  C    0.000000   0.000000   0.000000   0.000000   0.000000   0.000000
     7  S    0.000000   0.000000   0.000000   0.000000   0.000000   0.000000
     8  C    0.000000   0.000000   0.000000   0.000000   0.000000   0.000000
     9  C    0.000000   0.000000   0.000000   0.000000   0.000000   0.000000
    10  N    0.000000   0.000000   0.000000   0.000000   0.000000   0.000000
    11  C    0.000000   0.000000   0.000000   0.000000   0.000000   0.000000
    12  C    0.000000   0.000000   0.000000   0.000000   0.000000   0.000000
    13  C    4.157336   0.000000   0.000000   0.000000   0.000000   0.000000
    14  C    0.000000   4.133435   0.000000   0.000000   0.000000   0.000000
    15  C    0.000000   0.000000   4.158340   0.000000   0.000000   0.000000
    16  C    0.000000   0.000000   0.000000   4.132473   0.000000   0.000000
    17  H    0.000000   0.000000   0.000000   0.000000   0.746643   0.000000
    18  H    0.000000   0.000000   0.000000   0.000000   0.000000   0.767236
    19  H    0.000000   0.000000   0.000000   0.000000   0.000000   0.000000
    20  H    0.000000   0.000000   0.000000   0.000000   0.000000   0.000000
    21  H    0.000000   0.000000   0.000000   0.000000   0.000000   0.000000
    22  H    0.000000   0.000000   0.000000   0.000000   0.000000   0.000000
    23  H    0.000000   0.000000   0.000000   0.000000   0.000000   0.000000
    24  H    0.000000   0.000000   0.000000   0.000000   0.000000   0.000000
              19         20         21         22         23         24
     1  C    0.000000   0.000000   0.000000   0.000000   0.000000   0.000000
     2  C    0.000000   0.000000   0.000000   0.000000   0.000000   0.000000
     3  N    0.000000   0.000000   0.000000   0.000000   0.000000   0.000000
     4  C    0.000000   0.000000   0.000000   0.000000   0.000000   0.000000
     5  S    0.000000   0.000000   0.000000   0.000000   0.000000   0.000000
     6  C    0.000000   0.000000   0.000000   0.000000   0.000000   0.000000
     7  S    0.000000   0.000000   0.000000   0.000000   0.000000   0.000000
     8  C    0.000000   0.000000   0.000000   0.000000   0.000000   0.000000
     9  C    0.000000   0.000000   0.000000   0.000000   0.000000   0.000000
    10  N    0.000000   0.000000   0.000000   0.000000   0.000000   0.000000
    11  C    0.000000   0.000000   0.000000   0.000000   0.000000   0.000000
    12  C    0.000000   0.000000   0.000000   0.000000   0.000000   0.000000
    13  C    0.000000   0.000000   0.000000   0.000000   0.000000   0.000000
    14  C    0.000000   0.000000   0.000000   0.000000   0.000000   0.000000
    15  C    0.000000   0.000000   0.000000   0.000000   0.000000   0.000000
    16  C    0.000000   0.000000   0.000000   0.000000   0.000000   0.000000
    17  H    0.000000   0.000000   0.000000   0.000000   0.000000   0.000000
    18  H    0.000000   0.000000   0.000000   0.000000   0.000000   0.000000
    19  H    0.780723   0.000000   0.000000   0.000000   0.000000   0.000000
    20  H    0.000000   0.827001   0.000000   0.000000   0.000000   0.000000
    21  H    0.000000   0.000000   0.829058   0.000000   0.000000   0.000000
    22  H    0.000000   0.000000   0.000000   0.828362   0.000000   0.000000
    23  H    0.000000   0.000000   0.000000   0.000000   0.827697   0.000000
    24  H    0.000000   0.000000   0.000000   0.000000   0.000000   0.828034
          Atomic-Atomic Spin Densities.
               1          2          3          4          5          6
     1  C   -0.151041   0.000000   0.000000   0.000000   0.000000   0.000000
     2  C    0.000000   0.398945   0.000000   0.000000   0.000000   0.000000
     3  N    0.000000   0.000000  -0.236865   0.000000   0.000000   0.000000
     4  C    0.000000   0.000000   0.000000   0.314217   0.000000   0.000000
     5  S    0.000000   0.000000   0.000000   0.000000   0.542650   0.000000
     6  C    0.000000   0.000000   0.000000   0.000000   0.000000  -0.135335
     7  S    0.000000   0.000000   0.000000   0.000000   0.000000   0.000000
     8  C    0.000000   0.000000   0.000000   0.000000   0.000000   0.000000
     9  C    0.000000   0.000000   0.000000   0.000000   0.000000   0.000000
    10  N    0.000000   0.000000   0.000000   0.000000   0.000000   0.000000
    11  C    0.000000   0.000000   0.000000   0.000000   0.000000   0.000000
    12  C    0.000000   0.000000   0.000000   0.000000   0.000000   0.000000
    13  C    0.000000   0.000000   0.000000   0.000000   0.000000   0.000000
    14  C    0.000000   0.000000   0.000000   0.000000   0.000000   0.000000
    15  C    0.000000   0.000000   0.000000   0.000000   0.000000   0.000000
    16  C    0.000000   0.000000   0.000000   0.000000   0.000000   0.000000
    17  H    0.000000   0.000000   0.000000   0.000000   0.000000   0.000000
    18  H    0.000000   0.000000   0.000000   0.000000   0.000000   0.000000
    19  H    0.000000   0.000000   0.000000   0.000000   0.000000   0.000000
    20  H    0.000000   0.000000   0.000000   0.000000   0.000000   0.000000
    21  H    0.000000   0.000000   0.000000   0.000000   0.000000   0.000000
    22  H    0.000000   0.000000   0.000000   0.000000   0.000000   0.000000
    23  H    0.000000   0.000000   0.000000   0.000000   0.000000   0.000000
    24  H    0.000000   0.000000   0.000000   0.000000   0.000000   0.000000
               7          8          9         10         11         12
     1  C    0.000000   0.000000   0.000000   0.000000   0.000000   0.000000
     2  C    0.000000   0.000000   0.000000   0.000000   0.000000   0.000000
     3  N    0.000000   0.000000   0.000000   0.000000   0.000000   0.000000
     4  C    0.000000   0.000000   0.000000   0.000000   0.000000   0.000000
     5  S    0.000000   0.000000   0.000000   0.000000   0.000000   0.000000
     6  C    0.000000   0.000000   0.000000   0.000000   0.000000   0.000000
     7  S    0.048665   0.000000   0.000000   0.000000   0.000000   0.000000
     8  C    0.000000   0.170051   0.000000   0.000000   0.000000   0.000000
     9  C    0.000000   0.000000  -0.082197   0.000000   0.000000   0.000000
    10  N    0.000000   0.000000   0.000000   0.127192   0.000000   0.000000
    11  C    0.000000   0.000000   0.000000   0.000000  -0.029809   0.000000
    12  C    0.000000   0.000000   0.000000   0.000000   0.000000   0.028443
    13  C    0.000000   0.000000   0.000000   0.000000   0.000000   0.000000
    14  C    0.000000   0.000000   0.000000   0.000000   0.000000   0.000000
    15  C    0.000000   0.000000   0.000000   0.000000   0.000000   0.000000
    16  C    0.000000   0.000000   0.000000   0.000000   0.000000   0.000000
    17  H    0.000000   0.000000   0.000000   0.000000   0.000000   0.000000
    18  H    0.000000   0.000000   0.000000   0.000000   0.000000   0.000000
    19  H    0.000000   0.000000   0.000000   0.000000   0.000000   0.000000
    20  H    0.000000   0.000000   0.000000   0.000000   0.000000   0.000000
    21  H    0.000000   0.000000   0.000000   0.000000   0.000000   0.000000
    22  H    0.000000   0.000000   0.000000   0.000000   0.000000   0.000000
    23  H    0.000000   0.000000   0.000000   0.000000   0.000000   0.000000
    24  H    0.000000   0.000000   0.000000   0.000000   0.000000   0.000000
              13         14         15         16         17         18
     1  C    0.000000   0.000000   0.000000   0.000000   0.000000   0.000000
     2  C    0.000000   0.000000   0.000000   0.000000   0.000000   0.000000
     3  N    0.000000   0.000000   0.000000   0.000000   0.000000   0.000000
     4  C    0.000000   0.000000   0.000000   0.000000   0.000000   0.000000
     5  S    0.000000   0.000000   0.000000   0.000000   0.000000   0.000000
     6  C    0.000000   0.000000   0.000000   0.000000   0.000000   0.000000
     7  S    0.000000   0.000000   0.000000   0.000000   0.000000   0.000000
     8  C    0.000000   0.000000   0.000000   0.000000   0.000000   0.000000
     9  C    0.000000   0.000000   0.000000   0.000000   0.000000   0.000000
    10  N    0.000000   0.000000   0.000000   0.000000   0.000000   0.000000
    11  C    0.000000   0.000000   0.000000   0.000000   0.000000   0.000000
    12  C    0.000000   0.000000   0.000000   0.000000   0.000000   0.000000
    13  C   -0.021411   0.000000   0.000000   0.000000   0.000000   0.000000
    14  C    0.000000   0.024725   0.000000   0.000000   0.000000   0.000000
    15  C    0.000000   0.000000  -0.021204   0.000000   0.000000   0.000000
    16  C    0.000000   0.000000   0.000000   0.028606   0.000000   0.000000
    17  H    0.000000   0.000000   0.000000   0.000000   0.003928   0.000000
    18  H    0.000000   0.000000   0.000000   0.000000   0.000000  -0.010744
    19  H    0.000000   0.000000   0.000000   0.000000   0.000000   0.000000
    20  H    0.000000   0.000000   0.000000   0.000000   0.000000   0.000000
    21  H    0.000000   0.000000   0.000000   0.000000   0.000000   0.000000
    22  H    0.000000   0.000000   0.000000   0.000000   0.000000   0.000000
    23  H    0.000000   0.000000   0.000000   0.000000   0.000000   0.000000
    24  H    0.000000   0.000000   0.000000   0.000000   0.000000   0.000000
              19         20         21         22         23         24
     1  C    0.000000   0.000000   0.000000   0.000000   0.000000   0.000000
     2  C    0.000000   0.000000   0.000000   0.000000   0.000000   0.000000
     3  N    0.000000   0.000000   0.000000   0.000000   0.000000   0.000000
     4  C    0.000000   0.000000   0.000000   0.000000   0.000000   0.000000
     5  S    0.000000   0.000000   0.000000   0.000000   0.000000   0.000000
     6  C    0.000000   0.000000   0.000000   0.000000   0.000000   0.000000
     7  S    0.000000   0.000000   0.000000   0.000000   0.000000   0.000000
     8  C    0.000000   0.000000   0.000000   0.000000   0.000000   0.000000
     9  C    0.000000   0.000000   0.000000   0.000000   0.000000   0.000000
    10  N    0.000000   0.000000   0.000000   0.000000   0.000000   0.000000
    11  C    0.000000   0.000000   0.000000   0.000000   0.000000   0.000000
    12  C    0.000000   0.000000   0.000000   0.000000   0.000000   0.000000
    13  C    0.000000   0.000000   0.000000   0.000000   0.000000   0.000000
    14  C    0.000000   0.000000   0.000000   0.000000   0.000000   0.000000
    15  C    0.000000   0.000000   0.000000   0.000000   0.000000   0.000000
    16  C    0.000000   0.000000   0.000000   0.000000   0.000000   0.000000
    17  H    0.000000   0.000000   0.000000   0.000000   0.000000   0.000000
    18  H    0.000000   0.000000   0.000000   0.000000   0.000000   0.000000
    19  H    0.002227   0.000000   0.000000   0.000000   0.000000   0.000000
    20  H    0.000000  -0.000869   0.000000   0.000000   0.000000   0.000000
    21  H    0.000000   0.000000   0.000731   0.000000   0.000000   0.000000
    22  H    0.000000   0.000000   0.000000  -0.000748   0.000000   0.000000
    23  H    0.000000   0.000000   0.000000   0.000000   0.000732   0.000000
    24  H    0.000000   0.000000   0.000000   0.000000   0.000000  -0.000890
 Mulliken charges and spin densities:
               1          2
     1  C   -0.370140  -0.151041
     2  C    0.183032   0.398945
     3  N   -0.395791  -0.236865
     4  C    0.036783   0.314217
     5  S    0.887180   0.542650
     6  C   -0.047748  -0.135335
     7  S    0.426252   0.048665
     8  C   -0.161978   0.170051
     9  C   -0.008512  -0.082197
    10  N   -0.353239   0.127192
    11  C   -0.043544  -0.029809
    12  C   -0.135955   0.028443
    13  C   -0.157336  -0.021411
    14  C   -0.133435   0.024725
    15  C   -0.158340  -0.021204
    16  C   -0.132473   0.028606
    17  H    0.253357   0.003928
    18  H    0.232764  -0.010744
    19  H    0.219277   0.002227
    20  H    0.172999  -0.000869
    21  H    0.170942   0.000731
    22  H    0.171638  -0.000748
    23  H    0.172303   0.000732
    24  H    0.171966  -0.000890
 Sum of Mulliken charges =   1.00000   1.00000
 Mulliken charges and spin densities with hydrogens summed into heavy atoms:
               1          2
     1  C   -0.116783  -0.147114
     2  C    0.415796   0.388201
     3  N   -0.395791  -0.236865
     4  C    0.036783   0.314217
     5  S    0.887180   0.542650
     6  C   -0.047748  -0.135335
     7  S    0.426252   0.048665
     8  C   -0.161978   0.170051
     9  C    0.210765  -0.079970
    10  N   -0.353239   0.127192
    11  C   -0.043544  -0.029809
    12  C    0.037044   0.027574
    13  C    0.013606  -0.020680
    14  C    0.038203   0.023977
    15  C    0.013963  -0.020472
    16  C    0.039493   0.027716
 Charge=              1.0000 electrons
 Dipole moment (field-independent basis, Debye):
    X=            -14.5734    Y=              0.7372    Z=             -0.7557  Tot=             14.6116
 N-N= 4.938471416225D+02 E-N=-7.932848456574D+02  KE=-1.328006303241D+02
 1\1\GINC-NODE008\SP\UPM7\ZDO\C12H8N2S2(1+,2)\PSYCHE\08-Mar-2019\0\\# P
 M7 # Geom=Checkpoint # SCRF=(SMD,Solvent=Acetonitrile) SCF=(MaxCycle=5
 00,FullDiagonalization) # Integral=(Grid=UltraFineGrid) CPHF=(MaxInv=2
 0000)\\IP of neutral geometry\\1,2\C,0,5.8091939753,-0.33666897,-0.146
 4951736\C,0,5.1737420308,-0.4261646128,-1.360303209\N,0,3.7927732901,-
 0.3233996424,-1.3124887486\C,0,3.3536258335,-0.1557930779,-0.070793130
 1\S,0,4.6590341009,-0.1146880079,1.1170487816\C,0,1.9682482773,-0.0239
 944428,0.2717958766\S,0,0.6631454019,-0.2731901832,-0.8912442164\C,0,-
 0.5006303529,0.0774408333,0.355725047\C,0,0.1507771382,0.3551069102,1.
 5371877355\N,0,1.5315081606,0.2915051366,1.4839324895\C,0,-1.925655238
 8,0.0855482662,0.1122918845\C,0,-2.5777055561,-1.0520928904,-0.3745948
 095\C,0,-3.9511127151,-1.0202810509,-0.6004989239\C,0,-4.6776274797,0.
 1405439918,-0.3434103648\C,0,-4.0300694081,1.2738874791,0.14529521\C,0
 ,-2.6580948764,1.2491919644,0.3754908009\H,0,6.8749013036,-0.394355006
 7,0.032761813\H,0,5.6406407873,-0.5671914977,-2.3335036514\H,0,-0.3130
 771969,0.6106797398,2.4891982728\H,0,-2.0205397174,-1.9702313369,-0.57
 12773015\H,0,-4.4589302815,-1.9089349345,-0.97914096\H,0,-5.7535190025
 ,0.1620106992,-0.5232318768\H,0,-4.5988990345,2.1831153306,0.347372489
 7\H,0,-2.1518294395,2.1378553029,0.7577819648\\Version=ES64L-G16RevA.0
 3\State=2-A\HF=0.3947887\S2=0.902239\S2-1=0.\S2A=0.767131\RMSD=4.369e-
 09\Dipole=5.7157304,-0.4083098,0.4590472\PG=C01 [X(C12H8N2S2)]\\@


 THE NUMBERS ARE MEANINGLESS, BUT THE TRENDS ARE IMPORTANT.
     -- LARRY BURGGRAF
 Job cpu time:       0 days  0 hours  0 minutes 27.3 seconds.
 Elapsed time:       0 days  0 hours  0 minutes  7.1 seconds.
 File lengths (MBytes):  RWF=     92 Int=      0 D2E=      0 Chk=     10 Scr=      1
 Normal termination of Gaussian 16 at Fri Mar  8 16:05:19 2019.
 Initial command:
 /opt/apps/chemistry/Gaussian/g16/l1.exe "/tmp/Gau-183495.inp" -scrdir="/tmp/"
 Entering Link 1 = /opt/apps/chemistry/Gaussian/g16/l1.exe PID=    183588.
  
 Copyright (c) 1988,1990,1992,1993,1995,1998,2003,2009,2016,
            Gaussian, Inc.  All Rights Reserved.
  
 This is part of the Gaussian(R) 16 program.  It is based on
 the Gaussian(R) 09 system (copyright 2009, Gaussian, Inc.),
 the Gaussian(R) 03 system (copyright 2003, Gaussian, Inc.),
 the Gaussian(R) 98 system (copyright 1998, Gaussian, Inc.),
 the Gaussian(R) 94 system (copyright 1995, Gaussian, Inc.),
 the Gaussian 92(TM) system (copyright 1992, Gaussian, Inc.),
 the Gaussian 90(TM) system (copyright 1990, Gaussian, Inc.),
 the Gaussian 88(TM) system (copyright 1988, Gaussian, Inc.),
 the Gaussian 86(TM) system (copyright 1986, Carnegie Mellon
 University), and the Gaussian 82(TM) system (copyright 1983,
 Carnegie Mellon University). Gaussian is a federally registered
 trademark of Gaussian, Inc.
  
 This software contains proprietary and confidential information,
 including trade secrets, belonging to Gaussian, Inc.
  
 This software is provided under written license and may be
 used, copied, transmitted, or stored only in accord with that
 written license.
  
 The following legend is applicable only to US Government
 contracts under FAR:
  
                    RESTRICTED RIGHTS LEGEND
  
 Use, reproduction and disclosure by the US Government is
 subject to restrictions as set forth in subparagraphs (a)
 and (c) of the Commercial Computer Software - Restricted
 Rights clause in FAR 52.227-19.
  
 Gaussian, Inc.
 340 Quinnipiac St., Bldg. 40, Wallingford CT 06492
  
  
 ---------------------------------------------------------------
 Warning -- This program may not be used in any manner that
 competes with the business of Gaussian, Inc. or will provide
 assistance to any competitor of Gaussian, Inc.  The licensee
 of this program is prohibited from giving any competitor of
 Gaussian, Inc. access to this program.  By using this program,
 the user acknowledges that Gaussian, Inc. is engaged in the
 business of creating and licensing software in the field of
 computational chemistry and represents and warrants to the
 licensee that it is not a competitor of Gaussian, Inc. and that
 it will not use this program in any manner prohibited above.
 ---------------------------------------------------------------
  

 Cite this work as:
 Gaussian 16, Revision A.03,
 M. J. Frisch, G. W. Trucks, H. B. Schlegel, G. E. Scuseria, 
 M. A. Robb, J. R. Cheeseman, G. Scalmani, V. Barone, 
 G. A. Petersson, H. Nakatsuji, X. Li, M. Caricato, A. V. Marenich, 
 J. Bloino, B. G. Janesko, R. Gomperts, B. Mennucci, H. P. Hratchian, 
 J. V. Ortiz, A. F. Izmaylov, J. L. Sonnenberg, D. Williams-Young, 
 F. Ding, F. Lipparini, F. Egidi, J. Goings, B. Peng, A. Petrone, 
 T. Henderson, D. Ranasinghe, V. G. Zakrzewski, J. Gao, N. Rega, 
 G. Zheng, W. Liang, M. Hada, M. Ehara, K. Toyota, R. Fukuda, 
 J. Hasegawa, M. Ishida, T. Nakajima, Y. Honda, O. Kitao, H. Nakai, 
 T. Vreven, K. Throssell, J. A. Montgomery, Jr., J. E. Peralta, 
 F. Ogliaro, M. J. Bearpark, J. J. Heyd, E. N. Brothers, K. N. Kudin, 
 V. N. Staroverov, T. A. Keith, R. Kobayashi, J. Normand, 
 K. Raghavachari, A. P. Rendell, J. C. Burant, S. S. Iyengar, 
 J. Tomasi, M. Cossi, J. M. Millam, M. Klene, C. Adamo, R. Cammi, 
 J. W. Ochterski, R. L. Martin, K. Morokuma, O. Farkas, 
 J. B. Foresman, and D. J. Fox, Gaussian, Inc., Wallingford CT, 2016.
 
 ******************************************
 Gaussian 16:  ES64L-G16RevA.03 25-Dec-2016
                 8-Mar-2019 
 ******************************************
 %mem=32GB
 %nprocshared=4
 Will use up to    4 processors via shared memory.
 %Chk=/users/psyche/volatile/gaussian/chk/PM7_IP_EA/A1_pi1.chk
 ----------------------------------------------------------------------
 # PM7 # Geom=Checkpoint # SCRF=(SMD,Solvent=Acetonitrile) SCF=(MaxCycl
 e=500,FullDiagonalization) # Integral=(Grid=UltraFineGrid) CPHF=(MaxIn
 v=20000)
 ----------------------------------------------------------------------
 1/29=2,38=1,172=1/1;
 2/12=2,40=1/2;
 3/5=2,14=-4,25=1,41=4200000,70=32201,72=2,75=-5/1,2,3;
 4/35=1/1;
 5/5=2,7=500,16=1,35=1,38=5,53=2/2;
 6/7=2,8=2,9=2,10=2,28=1/1;
 99/5=1,9=1/99;
 ----------------------
 EA of neutral geometry
 ----------------------
 Structure from the checkpoint file:  "/users/psyche/volatile/gaussian/chk/PM7_IP_EA/A1_pi1.chk"
 Charge = -1 Multiplicity = 2
 Redundant internal coordinates found in file.  (old form).
 C,0,5.8091939753,-0.33666897,-0.1464951736
 C,0,5.1737420308,-0.4261646128,-1.360303209
 N,0,3.7927732901,-0.3233996424,-1.3124887486
 C,0,3.3536258335,-0.1557930779,-0.0707931301
 S,0,4.6590341009,-0.1146880079,1.1170487816
 C,0,1.9682482773,-0.0239944428,0.2717958766
 S,0,0.6631454019,-0.2731901832,-0.8912442164
 C,0,-0.5006303529,0.0774408333,0.355725047
 C,0,0.1507771382,0.3551069102,1.5371877355
 N,0,1.5315081606,0.2915051366,1.4839324895
 C,0,-1.9256552388,0.0855482662,0.1122918845
 C,0,-2.5777055561,-1.0520928904,-0.3745948095
 C,0,-3.9511127151,-1.0202810509,-0.6004989239
 C,0,-4.6776274797,0.1405439918,-0.3434103648
 C,0,-4.0300694081,1.2738874791,0.14529521
 C,0,-2.6580948764,1.2491919644,0.3754908009
 H,0,6.8749013036,-0.3943550067,0.032761813
 H,0,5.6406407873,-0.5671914977,-2.3335036514
 H,0,-0.3130771969,0.6106797398,2.4891982728
 H,0,-2.0205397174,-1.9702313369,-0.5712773015
 H,0,-4.4589302815,-1.9089349345,-0.97914096
 H,0,-5.7535190025,0.1620106992,-0.5232318768
 H,0,-4.5988990345,2.1831153306,0.3473724897
 H,0,-2.1518294395,2.1378553029,0.7577819648
 Recover connectivity data from disk.
                           ----------------------------
                           !    Current Parameters    !
                           ! (Angstroms and Degrees)  !
 --------------------------                            --------------------------
 ! Name  Definition              Value                                          !
 --------------------------------------------------------------------------------
 ! R1    R(1,2)                  1.373                                          !
 ! R2    R(1,5)                  1.723                                          !
 ! R3    R(1,17)                 1.0822                                         !
 ! R4    R(2,3)                  1.3856                                         !
 ! R5    R(2,18)                 1.0886                                         !
 ! R6    R(3,4)                  1.3277                                         !
 ! R7    R(4,5)                  1.7654                                         !
 ! R8    R(4,6)                  1.4332                                         !
 ! R9    R(6,7)                  1.7658                                         !
 ! R10   R(6,10)                 1.3265                                         !
 ! R11   R(7,8)                  1.7413                                         !
 ! R12   R(8,9)                  1.3774                                         !
 ! R13   R(8,11)                 1.4457                                         !
 ! R14   R(9,10)                 1.3832                                         !
 ! R15   R(9,19)                 1.0894                                         !
 ! R16   R(11,12)                1.3987                                         !
 ! R17   R(11,16)                1.3999                                         !
 ! R18   R(12,13)                1.3922                                         !
 ! R19   R(12,20)                1.0918                                         !
 ! R20   R(13,14)                1.3934                                         !
 ! R21   R(13,21)                1.0913                                         !
 ! R22   R(14,15)                1.3938                                         !
 ! R23   R(14,22)                1.091                                          !
 ! R24   R(15,16)                1.3914                                         !
 ! R25   R(15,23)                1.0914                                         !
 ! R26   R(16,24)                1.0919                                         !
 ! A1    A(2,1,5)              110.3506                                         !
 ! A2    A(2,1,17)             126.7781                                         !
 ! A3    A(5,1,17)             122.8712                                         !
 ! A4    A(1,2,3)              115.2093                                         !
 ! A5    A(1,2,18)             126.8908                                         !
 ! A6    A(3,2,18)             117.8999                                         !
 ! A7    A(2,3,4)              111.7951                                         !
 ! A8    A(3,4,5)              112.8066                                         !
 ! A9    A(3,4,6)              123.7036                                         !
 ! A10   A(5,4,6)              123.4897                                         !
 ! A11   A(1,5,4)               89.8383                                         !
 ! A12   A(4,6,7)              122.9581                                         !
 ! A13   A(4,6,10)             123.9571                                         !
 ! A14   A(7,6,10)             113.0846                                         !
 ! A15   A(6,7,8)               89.6496                                         !
 ! A16   A(7,8,9)              109.8009                                         !
 ! A17   A(7,8,11)             122.6373                                         !
 ! A18   A(9,8,11)             127.5503                                         !
 ! A19   A(8,9,10)             115.4533                                         !
 ! A20   A(8,9,19)             126.5475                                         !
 ! A21   A(10,9,19)            117.9988                                         !
 ! A22   A(6,10,9)             112.0103                                         !
 ! A23   A(8,11,12)            120.9013                                         !
 ! A24   A(8,11,16)            119.2566                                         !
 ! A25   A(12,11,16)           119.8415                                         !
 ! A26   A(11,12,13)           119.8524                                         !
 ! A27   A(11,12,20)           120.5815                                         !
 ! A28   A(13,12,20)           119.5637                                         !
 ! A29   A(12,13,14)           120.2295                                         !
 ! A30   A(12,13,21)           119.784                                          !
 ! A31   A(14,13,21)           119.9865                                         !
 ! A32   A(13,14,15)           119.9924                                         !
 ! A33   A(13,14,22)           120.0108                                         !
 ! A34   A(15,14,22)           119.9968                                         !
 ! A35   A(14,15,16)           120.1129                                         !
 ! A36   A(14,15,23)           120.0132                                         !
 ! A37   A(16,15,23)           119.8739                                         !
 ! A38   A(11,16,15)           119.9703                                         !
 ! A39   A(11,16,24)           119.9839                                         !
 ! A40   A(15,16,24)           120.0454                                         !
 ! D1    D(5,1,2,3)             -0.0333                                         !
 ! D2    D(5,1,2,18)           179.9899                                         !
 ! D3    D(17,1,2,3)           179.8489                                         !
 ! D4    D(17,1,2,18)           -0.1279                                         !
 ! D5    D(2,1,5,4)              0.0685                                         !
 ! D6    D(17,1,5,4)          -179.8192                                         !
 ! D7    D(1,2,3,4)             -0.038                                          !
 ! D8    D(18,2,3,4)           179.941                                          !
 ! D9    D(2,3,4,5)              0.0907                                         !
 ! D10   D(2,3,4,6)           -179.8234                                         !
 ! D11   D(3,4,5,1)             -0.0933                                         !
 ! D12   D(6,4,5,1)            179.8211                                         !
 ! D13   D(3,4,6,7)              8.0165                                         !
 ! D14   D(3,4,6,10)          -172.1604                                         !
 ! D15   D(5,4,6,7)           -171.8886                                         !
 ! D16   D(5,4,6,10)             7.9344                                         !
 ! D17   D(4,6,7,8)            179.9644                                         !
 ! D18   D(10,6,7,8)             0.124                                          !
 ! D19   D(4,6,10,9)           179.8376                                         !
 ! D20   D(7,6,10,9)            -0.3238                                         !
 ! D21   D(6,7,8,9)              0.11                                           !
 ! D22   D(6,7,8,11)           178.9614                                         !
 ! D23   D(7,8,9,10)            -0.3217                                         !
 ! D24   D(7,8,9,19)           179.9311                                         !
 ! D25   D(11,8,9,10)         -179.1017                                         !
 ! D26   D(11,8,9,19)            1.1511                                         !
 ! D27   D(7,8,11,12)           58.4146                                         !
 ! D28   D(7,8,11,16)         -121.8869                                         !
 ! D29   D(9,8,11,12)         -122.9485                                         !
 ! D30   D(9,8,11,16)           56.75                                           !
 ! D31   D(8,9,10,6)             0.4246                                         !
 ! D32   D(19,9,10,6)         -179.8055                                         !
 ! D33   D(8,11,12,13)         179.9637                                         !
 ! D34   D(8,11,12,20)           0.5233                                         !
 ! D35   D(16,11,12,13)          0.267                                          !
 ! D36   D(16,11,12,20)       -179.1734                                         !
 ! D37   D(8,11,16,15)         179.9341                                         !
 ! D38   D(8,11,16,24)           0.1576                                         !
 ! D39   D(12,11,16,15)         -0.3642                                         !
 ! D40   D(12,11,16,24)        179.8592                                         !
 ! D41   D(11,12,13,14)          0.0074                                         !
 ! D42   D(11,12,13,21)       -179.9194                                         !
 ! D43   D(20,12,13,14)        179.4535                                         !
 ! D44   D(20,12,13,21)         -0.4733                                         !
 ! D45   D(12,13,14,15)         -0.1857                                         !
 ! D46   D(12,13,14,22)        179.9024                                         !
 ! D47   D(21,13,14,15)        179.741                                          !
 ! D48   D(21,13,14,22)         -0.171                                          !
 ! D49   D(13,14,15,16)          0.0881                                         !
 ! D50   D(13,14,15,23)       -179.9619                                         !
 ! D51   D(22,14,15,16)       -179.9999                                         !
 ! D52   D(22,14,15,23)         -0.0499                                         !
 ! D53   D(14,15,16,11)          0.1868                                         !
 ! D54   D(14,15,16,24)        179.9632                                         !
 ! D55   D(23,15,16,11)       -179.7633                                         !
 ! D56   D(23,15,16,24)          0.0131                                         !
 --------------------------------------------------------------------------------
                          Input orientation:                          
 ---------------------------------------------------------------------
 Center     Atomic      Atomic             Coordinates (Angstroms)
 Number     Number       Type             X           Y           Z
 ---------------------------------------------------------------------
      1          6           0        5.809194   -0.336669   -0.146495
      2          6           0        5.173742   -0.426165   -1.360303
      3          7           0        3.792773   -0.323400   -1.312489
      4          6           0        3.353626   -0.155793   -0.070793
      5         16           0        4.659034   -0.114688    1.117049
      6          6           0        1.968248   -0.023994    0.271796
      7         16           0        0.663145   -0.273190   -0.891244
      8          6           0       -0.500630    0.077441    0.355725
      9          6           0        0.150777    0.355107    1.537188
     10          7           0        1.531508    0.291505    1.483932
     11          6           0       -1.925655    0.085548    0.112292
     12          6           0       -2.577706   -1.052093   -0.374595
     13          6           0       -3.951113   -1.020281   -0.600499
     14          6           0       -4.677627    0.140544   -0.343410
     15          6           0       -4.030069    1.273887    0.145295
     16          6           0       -2.658095    1.249192    0.375491
     17          1           0        6.874901   -0.394355    0.032762
     18          1           0        5.640641   -0.567191   -2.333504
     19          1           0       -0.313077    0.610680    2.489198
     20          1           0       -2.020540   -1.970231   -0.571277
     21          1           0       -4.458930   -1.908935   -0.979141
     22          1           0       -5.753519    0.162011   -0.523232
     23          1           0       -4.598899    2.183115    0.347372
     24          1           0       -2.151829    2.137855    0.757782
 ---------------------------------------------------------------------
                    Distance matrix (angstroms):
                    1          2          3          4          5
     1  C    0.000000
     2  C    1.373003   0.000000
     3  N    2.329307   1.385612   0.000000
     4  C    2.463384   2.246945   1.327686   0.000000
     5  S    1.722988   2.549356   2.587783   1.765432   0.000000
     6  C    3.876286   3.619486   2.434850   1.433181   2.821880
     7  S    5.200048   4.537499   3.158249   2.815245   4.474985
     8  C    6.343311   5.949527   4.623519   3.884792   5.219067
     9  C    5.943991   5.851155   4.673881   3.620064   4.552099
    10  N    4.620768   4.676601   3.648479   2.436670   3.175061
    11  C    7.750686   7.268551   5.907424   5.287965   6.663915
    12  C    8.420448   7.838900   6.480250   6.006358   7.448096
    13  C    9.794745   9.175688   7.807711   7.374763   8.826364
    14  C   10.499521   9.919915   8.538269   8.041341   9.453641
    15  C    9.974474   9.479829   8.116239   7.523938   8.852851
    16  C    8.630319   8.194966   6.850987   6.189825   7.480004
    17  H    1.082217   2.198996   3.363666   3.530866   2.482732
    18  H    2.205574   1.088578   2.125211   3.243385   3.615885
    19  H    6.732500   6.782248   5.673036   4.537152   5.208728
    20  H    8.009600   7.400297   6.087369   5.694236   7.135138
    21  H   10.421118   9.753577   8.409260   8.058203   9.526311
    22  H   11.579592  10.975048   9.591155   9.123913  10.544588
    23  H   10.720150  10.258119   8.913917   8.299880   9.569829
    24  H    8.385635   8.045153   6.758853   6.021412   7.182680
                    6          7          8          9         10
     6  C    0.000000
     7  S    1.765801   0.000000
     8  C    2.472386   1.741335   0.000000
     9  C    2.246806   2.560188   1.377419   0.000000
    10  N    1.326483   2.591216   2.334151   1.383221   0.000000
    11  C    3.898708   2.799583   1.445691   2.532698   3.725023
    12  C    4.705370   3.372941   2.474562   3.616593   4.705849
    13  C    6.065667   4.683381   3.745022   4.825650   6.010388
    14  C    6.676318   5.384715   4.235573   5.186152   6.474205
    15  C    6.138429   5.049171   3.732654   4.501222   5.804151
    16  C    4.799459   3.866898   2.455208   3.168389   4.438308
    17  H    4.926413   6.281272   7.397659   6.931005   5.579261
    18  H    4.535319   5.190569   6.735185   6.780228   5.674077
    19  H    3.244092   3.627896   2.207086   1.089405   2.124836
    20  H    4.517637   3.191315   2.713378   3.816732   4.685764
    21  H    6.813697   5.377643   4.625548   5.719021   6.840615
    22  H    7.764815   6.441926   5.326590   6.256463   7.557585
    23  H    6.928526   5.937737   4.607574   5.226538   6.515508
    24  H    4.678121   4.056663   2.670846   3.014575   4.183692
                   11         12         13         14         15
    11  C    0.000000
    12  C    1.398734   0.000000
    13  C    2.415245   1.392226   0.000000
    14  C    2.789989   2.415166   1.393353   0.000000
    15  C    2.416981   2.791027   2.413639   1.393783   0.000000
    16  C    1.399931   2.421777   2.788361   2.413386   1.391371
    17  H    8.813990   9.484215  10.862568  11.571022  11.032411
    18  H    7.978522   8.462486   9.757578  10.532237  10.151682
    19  H    2.919907   4.011816   5.043963   5.224366   4.444070
    20  H    2.168525   1.091831   2.151830   3.401090   3.882782
    21  H    3.403920   2.153755   1.091308   2.156930   3.402740
    22  H    3.881015   3.403224   2.156954   1.091027   2.157192
    23  H    3.406066   3.882400   3.402916   2.157655   1.091374
    24  H    2.163279   3.411659   3.880228   3.403165   2.156239
                   16         17         18         19         20
    16  C    0.000000
    17  H    9.679707   0.000000
    18  H    8.916665   2.674413   0.000000
    19  H    3.220957   7.662324   7.751941   0.000000
    20  H    3.415777   9.054122   7.985465   4.352360   0.000000
    21  H    3.879665  11.479270  10.277933   5.963718   2.473026
    22  H    3.401664  12.652892  11.560091   6.234938   4.299291
    23  H    2.154002  11.763946  10.936154   5.042642   4.974147
    24  H    1.091867   9.403170   8.808854   2.951453   4.319724
                   21         22         23         24
    21  H    0.000000
    22  H    2.484478   0.000000
    23  H    4.303964   2.485149   0.000000
    24  H    4.971532   4.303153   2.481660   0.000000
 Stoichiometry    C12H8N2S2(1-,2)
 Framework group  C1[X(C12H8N2S2)]
 Deg. of freedom    66
 Full point group                 C1      NOp   1
 Largest Abelian subgroup         C1      NOp   1
 Largest concise Abelian subgroup C1      NOp   1
                         Standard orientation:                         
 ---------------------------------------------------------------------
 Center     Atomic      Atomic             Coordinates (Angstroms)
 Number     Number       Type             X           Y           Z
 ---------------------------------------------------------------------
      1          6           0       -5.081294   -0.235964    0.050503
      2          6           0       -4.436331   -1.372753    0.471065
      3          7           0       -3.052734   -1.298310    0.477156
      4          6           0       -2.621027   -0.112784    0.063745
      5         16           0       -3.937120    0.986040   -0.357245
      6          6           0       -1.235174    0.239370   -0.033245
      7         16           0        0.070584   -0.928188    0.190044
      8          6           0        1.234574    0.335063   -0.095569
      9          6           0        0.582861    1.525247   -0.332249
     10          7           0       -0.798602    1.463043   -0.300803
     11          6           0        2.661212    0.105783   -0.049160
     12          6           0        3.265074   -0.836096   -0.888607
     13          6           0        4.641055   -1.038740   -0.826140
     14          6           0        5.417970   -0.306831    0.069486
     15          6           0        4.818373    0.634760    0.904066
     16          6           0        3.444104    0.844361    0.846044
     17          1           0       -6.150590   -0.089594   -0.029338
     18          1           0       -4.897707   -2.304957    0.792206
     19          1           0        1.046807    2.488540   -0.541114
     20          1           0        2.667945   -1.409174   -1.600728
     21          1           0        5.111213   -1.772948   -1.482527
     22          1           0        6.495751   -0.469654    0.116568
     23          1           0        5.426671    1.208675    1.605273
     24          1           0        2.975454    1.581840    1.500770
 ---------------------------------------------------------------------
 Rotational constants (GHZ):           1.7847259           0.1813514           0.1713690
 Standard basis: VSTO-6G (5D, 7F)
 There are    84 symmetry adapted cartesian basis functions of A   symmetry.
 There are    82 symmetry adapted basis functions of A   symmetry.
    82 basis functions,   504 primitive gaussians,    84 cartesian basis functions
    40 alpha electrons       39 beta electrons
       nuclear repulsion energy       493.8582858180 Hartrees.
 Integral buffers will be    131072 words long.
 Regular integral format.
 Two-electron integral symmetry is turned off.
 Nuclear repulsion after empirical dispersion term =      493.8509641257 Hartrees.
 ------------------------------------------------------------------------------
 Polarizable Continuum Model (PCM)
 =================================
 Model                : PCM.
 Atomic radii         : SMD-Coulomb.
 Polarization charges : Total charges.
 Charge compensation  : None.
 Solution method      : On-the-fly selection.
 Cavity type          : VdW (van der Waals Surface) (Alpha=1.000).
 Cavity algorithm     : GePol (No added spheres)
                        Default sphere list used, NSphG=   24.
                        Lebedev-Laikov grids with approx.  5.0 points / Ang**2.
                        Smoothing algorithm: York/Karplus (Gamma=1.0000).
                        Polarization charges: spherical gaussians, with
                                              point-specific exponents (IZeta= 3).
                        Self-potential: point-specific (ISelfS= 7).
                        Self-field    : sphere-specific E.n sum rule (ISelfD= 2).
 Solvent              : Acetonitrile, Eps=  35.688000 Eps(inf)=   1.806874
 ------------------------------------------------------------------------------
 ------------------------------------------------------------------------------
 Atomic radii for non-electrostatic terms: SMD-CDS.
 ------------------------------------------------------------------------------
 Nuclear repulsion after PCM non-electrostatic terms =      493.8471416225 Hartrees.
 Do NDO integrals.
 One-electron integrals computed using PRISM.
 NBasis=    82 RedAO= F EigKep=  0.00D+00  NBF=    82
 NBsUse=    82 1.00D-04 EigRej=  0.00D+00 NBFU=    82
 Nonelectrostatic core Hamiltonian diagonalized for initial guess.
 Initial guess <Sx>= 0.0000 <Sy>= 0.0000 <Sz>= 0.5000 <S**2>= 0.7500 S= 0.5000
 Keep J ints in memory in canonical form, NReq=2161028.
 Overlap will be assumed to be unity.
 Requested convergence on RMS density matrix=1.00D-08 within 500 cycles.
 Requested convergence on MAX density matrix=1.00D-06.
 Requested convergence on             energy=1.00D-06.
 No special actions if energy rises.
 Inv3:  Mode=1 IEnd=    14348907.
 Iteration    1 A*A^-1 deviation from unit magnitude is 3.66D-15 for   1873.
 Iteration    1 A*A^-1 deviation from orthogonality  is 1.62D-15 for    435    204.
 Iteration    1 A^-1*A deviation from unit magnitude is 3.22D-15 for   1873.
 Iteration    1 A^-1*A deviation from orthogonality  is 1.51D-15 for    573    497.
 Error on total polarization charges = -0.00052
 SCF Done:  E(UPM7) = -0.161278166948E-01 A.U. after   30 cycles
[...]
  Beta virt. eigenvalues --   -0.02865  -0.00737  -0.00614  -0.00002   0.00279
  Beta virt. eigenvalues --    0.01222   0.01652   0.02760   0.02937   0.03447
  Beta virt. eigenvalues --    0.03675   0.04101   0.04833   0.05622   0.06324
  Beta virt. eigenvalues --    0.07110   0.08379   0.08693   0.09631   0.10229
  Beta virt. eigenvalues --    0.10623   0.12952   0.14692   0.15968   0.16106
  Beta virt. eigenvalues --    0.16484   0.18135   0.18145   0.18442   0.18958
  Beta virt. eigenvalues --    0.18985   0.19419   0.20433   0.20849   0.21106
  Beta virt. eigenvalues --    0.21607   0.22323   0.22654   0.22854   0.22944
  Beta virt. eigenvalues --    0.22968   0.23070   0.23207
          Condensed to atoms (all electrons):
               1          2          3          4          5          6
     1  C    4.415444   0.000000   0.000000   0.000000   0.000000   0.000000
     2  C    0.000000   3.976855   0.000000   0.000000   0.000000   0.000000
     3  N    0.000000   0.000000   5.531225   0.000000   0.000000   0.000000
     4  C    0.000000   0.000000   0.000000   3.973525   0.000000   0.000000
     5  S    0.000000   0.000000   0.000000   0.000000   5.894882   0.000000
     6  C    0.000000   0.000000   0.000000   0.000000   0.000000   4.045893
     7  S    0.000000   0.000000   0.000000   0.000000   0.000000   0.000000
     8  C    0.000000   0.000000   0.000000   0.000000   0.000000   0.000000
     9  C    0.000000   0.000000   0.000000   0.000000   0.000000   0.000000
    10  N    0.000000   0.000000   0.000000   0.000000   0.000000   0.000000
    11  C    0.000000   0.000000   0.000000   0.000000   0.000000   0.000000
    12  C    0.000000   0.000000   0.000000   0.000000   0.000000   0.000000
    13  C    0.000000   0.000000   0.000000   0.000000   0.000000   0.000000
    14  C    0.000000   0.000000   0.000000   0.000000   0.000000   0.000000
    15  C    0.000000   0.000000   0.000000   0.000000   0.000000   0.000000
    16  C    0.000000   0.000000   0.000000   0.000000   0.000000   0.000000
    17  H    0.000000   0.000000   0.000000   0.000000   0.000000   0.000000
    18  H    0.000000   0.000000   0.000000   0.000000   0.000000   0.000000
    19  H    0.000000   0.000000   0.000000   0.000000   0.000000   0.000000
    20  H    0.000000   0.000000   0.000000   0.000000   0.000000   0.000000
    21  H    0.000000   0.000000   0.000000   0.000000   0.000000   0.000000
    22  H    0.000000   0.000000   0.000000   0.000000   0.000000   0.000000
    23  H    0.000000   0.000000   0.000000   0.000000   0.000000   0.000000
    24  H    0.000000   0.000000   0.000000   0.000000   0.000000   0.000000
               7          8          9         10         11         12
     1  C    0.000000   0.000000   0.000000   0.000000   0.000000   0.000000
     2  C    0.000000   0.000000   0.000000   0.000000   0.000000   0.000000
     3  N    0.000000   0.000000   0.000000   0.000000   0.000000   0.000000
     4  C    0.000000   0.000000   0.000000   0.000000   0.000000   0.000000
     5  S    0.000000   0.000000   0.000000   0.000000   0.000000   0.000000
     6  C    0.000000   0.000000   0.000000   0.000000   0.000000   0.000000
     7  S    5.920627   0.000000   0.000000   0.000000   0.000000   0.000000
     8  C    0.000000   4.301268   0.000000   0.000000   0.000000   0.000000
     9  C    0.000000   0.000000   3.977263   0.000000   0.000000   0.000000
    10  N    0.000000   0.000000   0.000000   5.528014   0.000000   0.000000
    11  C    0.000000   0.000000   0.000000   0.000000   3.967311   0.000000
    12  C    0.000000   0.000000   0.000000   0.000000   0.000000   4.178495
    13  C    0.000000   0.000000   0.000000   0.000000   0.000000   0.000000
    14  C    0.000000   0.000000   0.000000   0.000000   0.000000   0.000000
    15  C    0.000000   0.000000   0.000000   0.000000   0.000000   0.000000
    16  C    0.000000   0.000000   0.000000   0.000000   0.000000   0.000000
    17  H    0.000000   0.000000   0.000000   0.000000   0.000000   0.000000
    18  H    0.000000   0.000000   0.000000   0.000000   0.000000   0.000000
    19  H    0.000000   0.000000   0.000000   0.000000   0.000000   0.000000
    20  H    0.000000   0.000000   0.000000   0.000000   0.000000   0.000000
    21  H    0.000000   0.000000   0.000000   0.000000   0.000000   0.000000
    22  H    0.000000   0.000000   0.000000   0.000000   0.000000   0.000000
    23  H    0.000000   0.000000   0.000000   0.000000   0.000000   0.000000
    24  H    0.000000   0.000000   0.000000   0.000000   0.000000   0.000000
              13         14         15         16         17         18
     1  C    0.000000   0.000000   0.000000   0.000000   0.000000   0.000000
     2  C    0.000000   0.000000   0.000000   0.000000   0.000000   0.000000
     3  N    0.000000   0.000000   0.000000   0.000000   0.000000   0.000000
     4  C    0.000000   0.000000   0.000000   0.000000   0.000000   0.000000
     5  S    0.000000   0.000000   0.000000   0.000000   0.000000   0.000000
     6  C    0.000000   0.000000   0.000000   0.000000   0.000000   0.000000
     7  S    0.000000   0.000000   0.000000   0.000000   0.000000   0.000000
     8  C    0.000000   0.000000   0.000000   0.000000   0.000000   0.000000
     9  C    0.000000   0.000000   0.000000   0.000000   0.000000   0.000000
    10  N    0.000000   0.000000   0.000000   0.000000   0.000000   0.000000
    11  C    0.000000   0.000000   0.000000   0.000000   0.000000   0.000000
    12  C    0.000000   0.000000   0.000000   0.000000   0.000000   0.000000
    13  C    4.147635   0.000000   0.000000   0.000000   0.000000   0.000000
    14  C    0.000000   4.177935   0.000000   0.000000   0.000000   0.000000
    15  C    0.000000   0.000000   4.146408   0.000000   0.000000   0.000000
    16  C    0.000000   0.000000   0.000000   4.182500   0.000000   0.000000
    17  H    0.000000   0.000000   0.000000   0.000000   0.807193   0.000000
    18  H    0.000000   0.000000   0.000000   0.000000   0.000000   0.820047
    19  H    0.000000   0.000000   0.000000   0.000000   0.000000   0.000000
    20  H    0.000000   0.000000   0.000000   0.000000   0.000000   0.000000
    21  H    0.000000   0.000000   0.000000   0.000000   0.000000   0.000000
    22  H    0.000000   0.000000   0.000000   0.000000   0.000000   0.000000
    23  H    0.000000   0.000000   0.000000   0.000000   0.000000   0.000000
    24  H    0.000000   0.000000   0.000000   0.000000   0.000000   0.000000
              19         20         21         22         23         24
     1  C    0.000000   0.000000   0.000000   0.000000   0.000000   0.000000
     2  C    0.000000   0.000000   0.000000   0.000000   0.000000   0.000000
     3  N    0.000000   0.000000   0.000000   0.000000   0.000000   0.000000
     4  C    0.000000   0.000000   0.000000   0.000000   0.000000   0.000000
     5  S    0.000000   0.000000   0.000000   0.000000   0.000000   0.000000
     6  C    0.000000   0.000000   0.000000   0.000000   0.000000   0.000000
     7  S    0.000000   0.000000   0.000000   0.000000   0.000000   0.000000
     8  C    0.000000   0.000000   0.000000   0.000000   0.000000   0.000000
     9  C    0.000000   0.000000   0.000000   0.000000   0.000000   0.000000
    10  N    0.000000   0.000000   0.000000   0.000000   0.000000   0.000000
    11  C    0.000000   0.000000   0.000000   0.000000   0.000000   0.000000
    12  C    0.000000   0.000000   0.000000   0.000000   0.000000   0.000000
    13  C    0.000000   0.000000   0.000000   0.000000   0.000000   0.000000
    14  C    0.000000   0.000000   0.000000   0.000000   0.000000   0.000000
    15  C    0.000000   0.000000   0.000000   0.000000   0.000000   0.000000
    16  C    0.000000   0.000000   0.000000   0.000000   0.000000   0.000000
    17  H    0.000000   0.000000   0.000000   0.000000   0.000000   0.000000
    18  H    0.000000   0.000000   0.000000   0.000000   0.000000   0.000000
    19  H    0.819123   0.000000   0.000000   0.000000   0.000000   0.000000
    20  H    0.000000   0.829645   0.000000   0.000000   0.000000   0.000000
    21  H    0.000000   0.000000   0.842013   0.000000   0.000000   0.000000
    22  H    0.000000   0.000000   0.000000   0.843493   0.000000   0.000000
    23  H    0.000000   0.000000   0.000000   0.000000   0.841278   0.000000
    24  H    0.000000   0.000000   0.000000   0.000000   0.000000   0.831926
          Atomic-Atomic Spin Densities.
               1          2          3          4          5          6
     1  C    0.299186   0.000000   0.000000   0.000000   0.000000   0.000000
     2  C    0.000000  -0.238855   0.000000   0.000000   0.000000   0.000000
     3  N    0.000000   0.000000   0.262070   0.000000   0.000000   0.000000
     4  C    0.000000   0.000000   0.000000  -0.013639   0.000000   0.000000
     5  S    0.000000   0.000000   0.000000   0.000000   0.097125   0.000000
     6  C    0.000000   0.000000   0.000000   0.000000   0.000000   0.127568
     7  S    0.000000   0.000000   0.000000   0.000000   0.000000   0.000000
     8  C    0.000000   0.000000   0.000000   0.000000   0.000000   0.000000
     9  C    0.000000   0.000000   0.000000   0.000000   0.000000   0.000000
    10  N    0.000000   0.000000   0.000000   0.000000   0.000000   0.000000
    11  C    0.000000   0.000000   0.000000   0.000000   0.000000   0.000000
    12  C    0.000000   0.000000   0.000000   0.000000   0.000000   0.000000
    13  C    0.000000   0.000000   0.000000   0.000000   0.000000   0.000000
    14  C    0.000000   0.000000   0.000000   0.000000   0.000000   0.000000
    15  C    0.000000   0.000000   0.000000   0.000000   0.000000   0.000000
    16  C    0.000000   0.000000   0.000000   0.000000   0.000000   0.000000
    17  H    0.000000   0.000000   0.000000   0.000000   0.000000   0.000000
    18  H    0.000000   0.000000   0.000000   0.000000   0.000000   0.000000
    19  H    0.000000   0.000000   0.000000   0.000000   0.000000   0.000000
    20  H    0.000000   0.000000   0.000000   0.000000   0.000000   0.000000
    21  H    0.000000   0.000000   0.000000   0.000000   0.000000   0.000000
    22  H    0.000000   0.000000   0.000000   0.000000   0.000000   0.000000
    23  H    0.000000   0.000000   0.000000   0.000000   0.000000   0.000000
    24  H    0.000000   0.000000   0.000000   0.000000   0.000000   0.000000
               7          8          9         10         11         12
     1  C    0.000000   0.000000   0.000000   0.000000   0.000000   0.000000
     2  C    0.000000   0.000000   0.000000   0.000000   0.000000   0.000000
     3  N    0.000000   0.000000   0.000000   0.000000   0.000000   0.000000
     4  C    0.000000   0.000000   0.000000   0.000000   0.000000   0.000000
     5  S    0.000000   0.000000   0.000000   0.000000   0.000000   0.000000
     6  C    0.000000   0.000000   0.000000   0.000000   0.000000   0.000000
     7  S    0.109349   0.000000   0.000000   0.000000   0.000000   0.000000
     8  C    0.000000   0.349973   0.000000   0.000000   0.000000   0.000000
     9  C    0.000000   0.000000  -0.256743   0.000000   0.000000   0.000000
    10  N    0.000000   0.000000   0.000000   0.249016   0.000000   0.000000
    11  C    0.000000   0.000000   0.000000   0.000000  -0.064282   0.000000
    12  C    0.000000   0.000000   0.000000   0.000000   0.000000   0.056796
    13  C    0.000000   0.000000   0.000000   0.000000   0.000000   0.000000
    14  C    0.000000   0.000000   0.000000   0.000000   0.000000   0.000000
    15  C    0.000000   0.000000   0.000000   0.000000   0.000000   0.000000
    16  C    0.000000   0.000000   0.000000   0.000000   0.000000   0.000000
    17  H    0.000000   0.000000   0.000000   0.000000   0.000000   0.000000
    18  H    0.000000   0.000000   0.000000   0.000000   0.000000   0.000000
    19  H    0.000000   0.000000   0.000000   0.000000   0.000000   0.000000
    20  H    0.000000   0.000000   0.000000   0.000000   0.000000   0.000000
    21  H    0.000000   0.000000   0.000000   0.000000   0.000000   0.000000
    22  H    0.000000   0.000000   0.000000   0.000000   0.000000   0.000000
    23  H    0.000000   0.000000   0.000000   0.000000   0.000000   0.000000
    24  H    0.000000   0.000000   0.000000   0.000000   0.000000   0.000000
              13         14         15         16         17         18
     1  C    0.000000   0.000000   0.000000   0.000000   0.000000   0.000000
     2  C    0.000000   0.000000   0.000000   0.000000   0.000000   0.000000
     3  N    0.000000   0.000000   0.000000   0.000000   0.000000   0.000000
     4  C    0.000000   0.000000   0.000000   0.000000   0.000000   0.000000
     5  S    0.000000   0.000000   0.000000   0.000000   0.000000   0.000000
     6  C    0.000000   0.000000   0.000000   0.000000   0.000000   0.000000
     7  S    0.000000   0.000000   0.000000   0.000000   0.000000   0.000000
     8  C    0.000000   0.000000   0.000000   0.000000   0.000000   0.000000
     9  C    0.000000   0.000000   0.000000   0.000000   0.000000   0.000000
    10  N    0.000000   0.000000   0.000000   0.000000   0.000000   0.000000
    11  C    0.000000   0.000000   0.000000   0.000000   0.000000   0.000000
    12  C    0.000000   0.000000   0.000000   0.000000   0.000000   0.000000
    13  C   -0.043081   0.000000   0.000000   0.000000   0.000000   0.000000
    14  C    0.000000   0.048819   0.000000   0.000000   0.000000   0.000000
    15  C    0.000000   0.000000  -0.042999   0.000000   0.000000   0.000000
    16  C    0.000000   0.000000   0.000000   0.057208   0.000000   0.000000
    17  H    0.000000   0.000000   0.000000   0.000000  -0.008461   0.000000
    18  H    0.000000   0.000000   0.000000   0.000000   0.000000   0.006356
    19  H    0.000000   0.000000   0.000000   0.000000   0.000000   0.000000
    20  H    0.000000   0.000000   0.000000   0.000000   0.000000   0.000000
    21  H    0.000000   0.000000   0.000000   0.000000   0.000000   0.000000
    22  H    0.000000   0.000000   0.000000   0.000000   0.000000   0.000000
    23  H    0.000000   0.000000   0.000000   0.000000   0.000000   0.000000
    24  H    0.000000   0.000000   0.000000   0.000000   0.000000   0.000000
              19         20         21         22         23         24
     1  C    0.000000   0.000000   0.000000   0.000000   0.000000   0.000000
     2  C    0.000000   0.000000   0.000000   0.000000   0.000000   0.000000
     3  N    0.000000   0.000000   0.000000   0.000000   0.000000   0.000000
     4  C    0.000000   0.000000   0.000000   0.000000   0.000000   0.000000
     5  S    0.000000   0.000000   0.000000   0.000000   0.000000   0.000000
     6  C    0.000000   0.000000   0.000000   0.000000   0.000000   0.000000
     7  S    0.000000   0.000000   0.000000   0.000000   0.000000   0.000000
     8  C    0.000000   0.000000   0.000000   0.000000   0.000000   0.000000
     9  C    0.000000   0.000000   0.000000   0.000000   0.000000   0.000000
    10  N    0.000000   0.000000   0.000000   0.000000   0.000000   0.000000
    11  C    0.000000   0.000000   0.000000   0.000000   0.000000   0.000000
    12  C    0.000000   0.000000   0.000000   0.000000   0.000000   0.000000
    13  C    0.000000   0.000000   0.000000   0.000000   0.000000   0.000000
    14  C    0.000000   0.000000   0.000000   0.000000   0.000000   0.000000
    15  C    0.000000   0.000000   0.000000   0.000000   0.000000   0.000000
    16  C    0.000000   0.000000   0.000000   0.000000   0.000000   0.000000
    17  H    0.000000   0.000000   0.000000   0.000000   0.000000   0.000000
    18  H    0.000000   0.000000   0.000000   0.000000   0.000000   0.000000
    19  H    0.006752   0.000000   0.000000   0.000000   0.000000   0.000000
    20  H    0.000000  -0.001759   0.000000   0.000000   0.000000   0.000000
    21  H    0.000000   0.000000   0.001429   0.000000   0.000000   0.000000
    22  H    0.000000   0.000000   0.000000  -0.001497   0.000000   0.000000
    23  H    0.000000   0.000000   0.000000   0.000000   0.001434   0.000000
    24  H    0.000000   0.000000   0.000000   0.000000   0.000000  -0.001766
 Mulliken charges and spin densities:
               1          2
     1  C   -0.415444   0.299186
     2  C    0.023145  -0.238855
     3  N   -0.531225   0.262070
     4  C    0.026475  -0.013639
     5  S    0.105118   0.097125
     6  C   -0.045893   0.127568
     7  S    0.079373   0.109349
     8  C   -0.301268   0.349973
     9  C    0.022737  -0.256743
    10  N   -0.528014   0.249016
    11  C    0.032689  -0.064282
    12  C   -0.178495   0.056796
    13  C   -0.147635  -0.043081
    14  C   -0.177935   0.048819
    15  C   -0.146408  -0.042999
    16  C   -0.182500   0.057208
    17  H    0.192807  -0.008461
    18  H    0.179953   0.006356
    19  H    0.180877   0.006752
    20  H    0.170355  -0.001759
    21  H    0.157987   0.001429
    22  H    0.156507  -0.001497
    23  H    0.158722   0.001434
    24  H    0.168074  -0.001766
 Sum of Mulliken charges =  -1.00000   1.00000
 Mulliken charges and spin densities with hydrogens summed into heavy atoms:
               1          2
     1  C   -0.222637   0.290725
     2  C    0.203098  -0.232498
     3  N   -0.531225   0.262070
     4  C    0.026475  -0.013639
     5  S    0.105118   0.097125
     6  C   -0.045893   0.127568
     7  S    0.079373   0.109349
     8  C   -0.301268   0.349973
     9  C    0.203614  -0.249991
    10  N   -0.528014   0.249016
    11  C    0.032689  -0.064282
    12  C   -0.008140   0.055037
    13  C    0.010352  -0.041652
    14  C   -0.021428   0.047322
    15  C    0.012314  -0.041565
    16  C   -0.014426   0.055442
 Charge=             -1.0000 electrons
 Dipole moment (field-independent basis, Debye):
    X=              7.5456    Y=             -0.2346    Z=             -0.3116  Tot=              7.5557
 N-N= 4.938471416225D+02 E-N=-8.121734387560D+02  KE=-1.355373360519D+02
 1\1\GINC-NODE008\SP\UPM7\ZDO\C12H8N2S2(1-,2)\PSYCHE\08-Mar-2019\0\\# P
 M7 # Geom=Checkpoint # SCRF=(SMD,Solvent=Acetonitrile) SCF=(MaxCycle=5
 00,FullDiagonalization) # Integral=(Grid=UltraFineGrid) CPHF=(MaxInv=2
 0000)\\EA of neutral geometry\\-1,2\C,0,5.8091939753,-0.33666897,-0.14
 64951736\C,0,5.1737420308,-0.4261646128,-1.360303209\N,0,3.7927732901,
 -0.3233996424,-1.3124887486\C,0,3.3536258335,-0.1557930779,-0.07079313
 01\S,0,4.6590341009,-0.1146880079,1.1170487816\C,0,1.9682482773,-0.023
 9944428,0.2717958766\S,0,0.6631454019,-0.2731901832,-0.8912442164\C,0,
 -0.5006303529,0.0774408333,0.355725047\C,0,0.1507771382,0.3551069102,1
 .5371877355\N,0,1.5315081606,0.2915051366,1.4839324895\C,0,-1.92565523
 88,0.0855482662,0.1122918845\C,0,-2.5777055561,-1.0520928904,-0.374594
 8095\C,0,-3.9511127151,-1.0202810509,-0.6004989239\C,0,-4.6776274797,0
 .1405439918,-0.3434103648\C,0,-4.0300694081,1.2738874791,0.14529521\C,
 0,-2.6580948764,1.2491919644,0.3754908009\H,0,6.8749013036,-0.39435500
 67,0.032761813\H,0,5.6406407873,-0.5671914977,-2.3335036514\H,0,-0.313
 0771969,0.6106797398,2.4891982728\H,0,-2.0205397174,-1.9702313369,-0.5
 712773015\H,0,-4.4589302815,-1.9089349345,-0.97914096\H,0,-5.753519002
 5,0.1620106992,-0.5232318768\H,0,-4.5988990345,2.1831153306,0.34737248
 97\H,0,-2.1518294395,2.1378553029,0.7577819648\\Version=ES64L-G16RevA.
 03\State=2-A\HF=-0.0161278\S2=0.930279\S2-1=0.\S2A=0.774039\RMSD=9.950
 e-09\Dipole=-2.9719061,-0.0115764,-0.0646754\PG=C01 [X(C12H8N2S2)]\\@


       THE DEATH-KNELL OF THE ATOM

 SO THE ATOMS IN TURN, WE NOW CLEARLY DISCERN,
 FLY TO BITS WITH THE UTMOST FACILITY;
 THEY WEND ON THEIR WAY, AND, IN SPLITTING, DISPLAY
 AN ABSOLUTE LACK OF STABILITY.

          SIR WM. RAMSAY, 1905
 Job cpu time:       0 days  0 hours  0 minutes 28.4 seconds.
 Elapsed time:       0 days  0 hours  0 minutes  7.4 seconds.
 File lengths (MBytes):  RWF=     92 Int=      0 D2E=      0 Chk=     10 Scr=      1
 Normal termination of Gaussian 16 at Fri Mar  8 16:05:27 2019.
