 Entering Gaussian System, Link 0=g16
 Initial command:
 /opt/apps/chemistry/Gaussian/g16/l1.exe "/tmp/Gau-27265.inp" -scrdir="/tmp/"
 Entering Link 1 = /opt/apps/chemistry/Gaussian/g16/l1.exe PID=     27270.
  
 Copyright (c) 1988,1990,1992,1993,1995,1998,2003,2009,2016,
            Gaussian, Inc.  All Rights Reserved.
  
 This is part of the Gaussian(R) 16 program.  It is based on
 the Gaussian(R) 09 system (copyright 2009, Gaussian, Inc.),
 the Gaussian(R) 03 system (copyright 2003, Gaussian, Inc.),
 the Gaussian(R) 98 system (copyright 1998, Gaussian, Inc.),
 the Gaussian(R) 94 system (copyright 1995, Gaussian, Inc.),
 the Gaussian 92(TM) system (copyright 1992, Gaussian, Inc.),
 the Gaussian 90(TM) system (copyright 1990, Gaussian, Inc.),
 the Gaussian 88(TM) system (copyright 1988, Gaussian, Inc.),
 the Gaussian 86(TM) system (copyright 1986, Carnegie Mellon
 University), and the Gaussian 82(TM) system (copyright 1983,
 Carnegie Mellon University). Gaussian is a federally registered
 trademark of Gaussian, Inc.
  
 This software contains proprietary and confidential information,
 including trade secrets, belonging to Gaussian, Inc.
  
 This software is provided under written license and may be
 used, copied, transmitted, or stored only in accord with that
 written license.
  
 The following legend is applicable only to US Government
 contracts under FAR:
  
                    RESTRICTED RIGHTS LEGEND
  
 Use, reproduction and disclosure by the US Government is
 subject to restrictions as set forth in subparagraphs (a)
 and (c) of the Commercial Computer Software - Restricted
 Rights clause in FAR 52.227-19.
  
 Gaussian, Inc.
 340 Quinnipiac St., Bldg. 40, Wallingford CT 06492
  
  
 ---------------------------------------------------------------
 Warning -- This program may not be used in any manner that
 competes with the business of Gaussian, Inc. or will provide
 assistance to any competitor of Gaussian, Inc.  The licensee
 of this program is prohibited from giving any competitor of
 Gaussian, Inc. access to this program.  By using this program,
 the user acknowledges that Gaussian, Inc. is engaged in the
 business of creating and licensing software in the field of
 computational chemistry and represents and warrants to the
 licensee that it is not a competitor of Gaussian, Inc. and that
 it will not use this program in any manner prohibited above.
 ---------------------------------------------------------------
  

 Cite this work as:
 Gaussian 16, Revision A.03,
 M. J. Frisch, G. W. Trucks, H. B. Schlegel, G. E. Scuseria, 
 M. A. Robb, J. R. Cheeseman, G. Scalmani, V. Barone, 
 G. A. Petersson, H. Nakatsuji, X. Li, M. Caricato, A. V. Marenich, 
 J. Bloino, B. G. Janesko, R. Gomperts, B. Mennucci, H. P. Hratchian, 
 J. V. Ortiz, A. F. Izmaylov, J. L. Sonnenberg, D. Williams-Young, 
 F. Ding, F. Lipparini, F. Egidi, J. Goings, B. Peng, A. Petrone, 
 T. Henderson, D. Ranasinghe, V. G. Zakrzewski, J. Gao, N. Rega, 
 G. Zheng, W. Liang, M. Hada, M. Ehara, K. Toyota, R. Fukuda, 
 J. Hasegawa, M. Ishida, T. Nakajima, Y. Honda, O. Kitao, H. Nakai, 
 T. Vreven, K. Throssell, J. A. Montgomery, Jr., J. E. Peralta, 
 F. Ogliaro, M. J. Bearpark, J. J. Heyd, E. N. Brothers, K. N. Kudin, 
 V. N. Staroverov, T. A. Keith, R. Kobayashi, J. Normand, 
 K. Raghavachari, A. P. Rendell, J. C. Burant, S. S. Iyengar, 
 J. Tomasi, M. Cossi, J. M. Millam, M. Klene, C. Adamo, R. Cammi, 
 J. W. Ochterski, R. L. Martin, K. Morokuma, O. Farkas, 
 J. B. Foresman, and D. J. Fox, Gaussian, Inc., Wallingford CT, 2016.
 
 ******************************************
 Gaussian 16:  ES64L-G16RevA.03 25-Dec-2016
                 6-Mar-2019 
 ******************************************
 %mem=80GB
 %nprocshared=10
 Will use up to   10 processors via shared memory.
 %Chk=/users/psyche/volatile/gaussian/chk/dyes/A2_pi4.chk
 ----------------------------------------------------------------------
 # PM7 Opt=(tight, recalc=3, maxcycle=100) Freq=(NoRaman) # Geom=Checkp
 oint Guess=Read # SCRF=(SMD,Solvent=Acetonitrile) SCF=(MaxCycle=500,Fu
 llDiagonalization) # Integral=(Grid=UltraFineGrid) CPHF=(MaxInv=20000)
 ----------------------------------------------------------------------
 1/6=100,7=10,10=4,18=20,19=15,26=6,29=2,38=1,71=3/1,3;
 2/9=110,12=2,40=1/2;
 3/5=2,14=-4,25=1,41=4200000,70=32201,71=2,72=2,75=-5,116=-2,140=1/1,2,3;
 4/5=1,35=1/1;
 5/5=2,7=500,16=1,35=1,38=6,53=2/2;
 8/6=4,10=90,11=11/1;
 11/6=1,8=1,9=11,15=111,16=1/1,2,10;
 10/6=1,11=20000/2;
 6/7=2,8=2,9=2,10=2,28=1/1;
 7/10=1,25=1/1,2,3,16;
 1/6=100,7=10,10=4,18=20,19=15,26=6,71=3/3(3);
 2/9=110/2;
 7/9=1,25=1,44=-1/16;
 99//99;
 2/9=110/2;
 3/5=2,14=-2,25=1,41=4200000,70=32205,71=2,72=2,75=-5,135=20,140=1/1,2,3;
 4/5=5,16=3,35=1/1;
 5/5=2,7=500,16=1,35=1,38=5,53=2/2;
 8/6=4,10=90,11=11/1;
 11/6=1,8=1,9=11,15=111,16=1/1,2,10;
 10/6=1,11=20000/2;
 7/10=1,25=1/1,2,3,16;
 1/6=100,7=10,18=20,19=15,26=6,71=3/3(-8);
 2/9=110/2;
 6/7=2,8=2,9=2,10=2,19=2,28=1/1;
 7/9=1,25=1,44=-1/16;
 99/9=1/99;
 -----------------
 Optimize geometry
 -----------------
 Structure from the checkpoint file:  "/users/psyche/volatile/gaussian/chk/dyes/A2_pi4.chk"
 Charge =  0 Multiplicity = 1
 Redundant internal coordinates found in file.  (old form).
 C,0,4.9977217665,-0.1525240495,0.1951572783
 S,0,4.1280466691,1.3871316072,-0.0807716427
 C,0,2.6350068726,0.5326972254,0.1166649839
 N,0,1.3166022872,0.9025725328,0.074616021
 C,0,0.5209351541,-0.1359414319,0.2900513737
 S,0,1.4121372526,-1.6816229184,0.5699536052
 C,0,2.8973185436,-0.8299419693,0.371868162
 N,0,4.2253690533,-1.1946275203,0.4119240466
 C,0,-0.9288344882,-0.0361435702,0.3008191318
 C,0,-1.5173509092,1.2162485757,0.0686979483
 C,0,-2.9043087295,1.3051214299,0.0794188162
 F,0,-3.4618497294,2.4886901637,-0.1412261239
 C,0,-3.7363634588,0.2109826318,0.3098632803
 C,0,-3.1332122835,-1.0217246917,0.5377903151
 C,0,-1.7443626222,-1.1495210042,0.5341978762
 H,0,6.0887850652,-0.205941938,0.1827584422
 H,0,-0.8967966627,2.0981603189,-0.1159986991
 H,0,-4.8234992679,0.3104219458,0.3134211517
 H,0,-3.7541930184,-1.9034289164,0.7220505671
 H,0,-1.3210514946,-2.1406084213,0.7185434659
 Recover connectivity data from disk.

 GradGradGradGradGradGradGradGradGradGradGradGradGradGradGradGradGradGrad
 Berny optimization.
 Initialization pass.
                           ----------------------------
                           !    Initial Parameters    !
                           ! (Angstroms and Degrees)  !
 --------------------------                            --------------------------
 ! Name  Definition              Value          Derivative Info.                !
 --------------------------------------------------------------------------------
 ! R1    R(1,2)                  1.7897         calculate D2E/DX2 analytically  !
 ! R2    R(1,8)                  1.3151         calculate D2E/DX2 analytically  !
 ! R3    R(1,16)                 1.0924         calculate D2E/DX2 analytically  !
 ! R4    R(2,3)                  1.7315         calculate D2E/DX2 analytically  !
 ! R5    R(3,4)                  1.37           calculate D2E/DX2 analytically  !
 ! R6    R(3,7)                  1.4109         calculate D2E/DX2 analytically  !
 ! R7    R(4,5)                  1.3259         calculate D2E/DX2 analytically  !
 ! R8    R(5,6)                  1.806          calculate D2E/DX2 analytically  !
 ! R9    R(5,9)                  1.4532         calculate D2E/DX2 analytically  !
 ! R10   R(6,7)                  1.7235         calculate D2E/DX2 analytically  !
 ! R11   R(7,8)                  1.3778         calculate D2E/DX2 analytically  !
 ! R12   R(9,10)                 1.4031         calculate D2E/DX2 analytically  !
 ! R13   R(9,15)                 1.3997         calculate D2E/DX2 analytically  !
 ! R14   R(10,11)                1.3898         calculate D2E/DX2 analytically  !
 ! R15   R(10,17)                1.0941         calculate D2E/DX2 analytically  !
 ! R16   R(11,12)                1.3268         calculate D2E/DX2 analytically  !
 ! R17   R(11,13)                1.3938         calculate D2E/DX2 analytically  !
 ! R18   R(13,14)                1.3912         calculate D2E/DX2 analytically  !
 ! R19   R(13,18)                1.0917         calculate D2E/DX2 analytically  !
 ! R20   R(14,15)                1.3947         calculate D2E/DX2 analytically  !
 ! R21   R(14,19)                1.0941         calculate D2E/DX2 analytically  !
 ! R22   R(15,20)                1.0934         calculate D2E/DX2 analytically  !
 ! A1    A(2,1,8)              114.9438         calculate D2E/DX2 analytically  !
 ! A2    A(2,1,16)             121.7112         calculate D2E/DX2 analytically  !
 ! A3    A(8,1,16)             123.3449         calculate D2E/DX2 analytically  !
 ! A4    A(1,2,3)               88.6769         calculate D2E/DX2 analytically  !
 ! A5    A(2,3,4)              133.8754         calculate D2E/DX2 analytically  !
 ! A6    A(2,3,7)              109.6871         calculate D2E/DX2 analytically  !
 ! A7    A(4,3,7)              116.4375         calculate D2E/DX2 analytically  !
 ! A8    A(3,4,5)              111.1652         calculate D2E/DX2 analytically  !
 ! A9    A(4,5,6)              113.5409         calculate D2E/DX2 analytically  !
 ! A10   A(4,5,9)              123.0984         calculate D2E/DX2 analytically  !
 ! A11   A(6,5,9)              123.3607         calculate D2E/DX2 analytically  !
 ! A12   A(5,6,7)               89.1113         calculate D2E/DX2 analytically  !
 ! A13   A(3,7,6)              109.7448         calculate D2E/DX2 analytically  !
 ! A14   A(3,7,8)              116.1096         calculate D2E/DX2 analytically  !
 ! A15   A(6,7,8)              134.1456         calculate D2E/DX2 analytically  !
 ! A16   A(1,8,7)              110.5826         calculate D2E/DX2 analytically  !
 ! A17   A(5,9,10)             118.5878         calculate D2E/DX2 analytically  !
 ! A18   A(5,9,15)             121.8612         calculate D2E/DX2 analytically  !
 ! A19   A(10,9,15)            119.5509         calculate D2E/DX2 analytically  !
 ! A20   A(9,10,11)            118.3181         calculate D2E/DX2 analytically  !
 ! A21   A(9,10,17)            120.6322         calculate D2E/DX2 analytically  !
 ! A22   A(11,10,17)           121.0498         calculate D2E/DX2 analytically  !
 ! A23   A(10,11,12)           118.3662         calculate D2E/DX2 analytically  !
 ! A24   A(10,11,13)           123.1494         calculate D2E/DX2 analytically  !
 ! A25   A(12,11,13)           118.4844         calculate D2E/DX2 analytically  !
 ! A26   A(11,13,14)           117.6375         calculate D2E/DX2 analytically  !
 ! A27   A(11,13,18)           121.5696         calculate D2E/DX2 analytically  !
 ! A28   A(14,13,18)           120.7929         calculate D2E/DX2 analytically  !
 ! A29   A(13,14,15)           120.831          calculate D2E/DX2 analytically  !
 ! A30   A(13,14,19)           119.7106         calculate D2E/DX2 analytically  !
 ! A31   A(15,14,19)           119.4585         calculate D2E/DX2 analytically  !
 ! A32   A(9,15,14)            120.5132         calculate D2E/DX2 analytically  !
 ! A33   A(9,15,20)            121.5719         calculate D2E/DX2 analytically  !
 ! A34   A(14,15,20)           117.9149         calculate D2E/DX2 analytically  !
 ! D1    D(8,1,2,3)              0.0244         calculate D2E/DX2 analytically  !
 ! D2    D(16,1,2,3)          -179.8898         calculate D2E/DX2 analytically  !
 ! D3    D(2,1,8,7)             -0.0245         calculate D2E/DX2 analytically  !
 ! D4    D(16,1,8,7)           179.8881         calculate D2E/DX2 analytically  !
 ! D5    D(1,2,3,4)           -179.9633         calculate D2E/DX2 analytically  !
 ! D6    D(1,2,3,7)             -0.0161         calculate D2E/DX2 analytically  !
 ! D7    D(2,3,4,5)            179.9082         calculate D2E/DX2 analytically  !
 ! D8    D(7,3,4,5)             -0.0362         calculate D2E/DX2 analytically  !
 ! D9    D(2,3,7,6)            179.953          calculate D2E/DX2 analytically  !
 ! D10   D(2,3,7,8)              0.0067         calculate D2E/DX2 analytically  !
 ! D11   D(4,3,7,6)             -0.0895         calculate D2E/DX2 analytically  !
 ! D12   D(4,3,7,8)            179.9641         calculate D2E/DX2 analytically  !
 ! D13   D(3,4,5,6)              0.1425         calculate D2E/DX2 analytically  !
 ! D14   D(3,4,5,9)           -179.9273         calculate D2E/DX2 analytically  !
 ! D15   D(4,5,6,7)             -0.1652         calculate D2E/DX2 analytically  !
 ! D16   D(9,5,6,7)            179.9047         calculate D2E/DX2 analytically  !
 ! D17   D(4,5,9,10)             0.1935         calculate D2E/DX2 analytically  !
 ! D18   D(4,5,9,15)          -179.8492         calculate D2E/DX2 analytically  !
 ! D19   D(6,5,9,10)          -179.883          calculate D2E/DX2 analytically  !
 ! D20   D(6,5,9,15)             0.0743         calculate D2E/DX2 analytically  !
 ! D21   D(5,6,7,3)              0.1341         calculate D2E/DX2 analytically  !
 ! D22   D(5,6,7,8)           -179.933          calculate D2E/DX2 analytically  !
 ! D23   D(3,7,8,1)              0.0115         calculate D2E/DX2 analytically  !
 ! D24   D(6,7,8,1)           -179.9181         calculate D2E/DX2 analytically  !
 ! D25   D(5,9,10,11)          179.9601         calculate D2E/DX2 analytically  !
 ! D26   D(5,9,10,17)           -0.0208         calculate D2E/DX2 analytically  !
 ! D27   D(15,9,10,11)           0.0018         calculate D2E/DX2 analytically  !
 ! D28   D(15,9,10,17)        -179.9791         calculate D2E/DX2 analytically  !
 ! D29   D(5,9,15,14)         -179.9782         calculate D2E/DX2 analytically  !
 ! D30   D(5,9,15,20)            0.031          calculate D2E/DX2 analytically  !
 ! D31   D(10,9,15,14)          -0.0213         calculate D2E/DX2 analytically  !
 ! D32   D(10,9,15,20)         179.9879         calculate D2E/DX2 analytically  !
 ! D33   D(9,10,11,12)        -179.937          calculate D2E/DX2 analytically  !
 ! D34   D(9,10,11,13)           0.0213         calculate D2E/DX2 analytically  !
 ! D35   D(17,10,11,12)          0.0438         calculate D2E/DX2 analytically  !
 ! D36   D(17,10,11,13)       -179.9979         calculate D2E/DX2 analytically  !
 ! D37   D(10,11,13,14)         -0.0238         calculate D2E/DX2 analytically  !
 ! D38   D(10,11,13,18)        179.9415         calculate D2E/DX2 analytically  !
 ! D39   D(12,11,13,14)        179.9344         calculate D2E/DX2 analytically  !
 ! D40   D(12,11,13,18)         -0.1003         calculate D2E/DX2 analytically  !
 ! D41   D(11,13,14,15)          0.0033         calculate D2E/DX2 analytically  !
 ! D42   D(11,13,14,19)       -179.975          calculate D2E/DX2 analytically  !
 ! D43   D(18,13,14,15)       -179.9622         calculate D2E/DX2 analytically  !
 ! D44   D(18,13,14,19)          0.0594         calculate D2E/DX2 analytically  !
 ! D45   D(13,14,15,9)           0.0188         calculate D2E/DX2 analytically  !
 ! D46   D(13,14,15,20)       -179.9901         calculate D2E/DX2 analytically  !
 ! D47   D(19,14,15,9)         179.9972         calculate D2E/DX2 analytically  !
 ! D48   D(19,14,15,20)         -0.0117         calculate D2E/DX2 analytically  !
 --------------------------------------------------------------------------------
 Trust Radius=3.00D-01 FncErr=5.00D-06 GrdErr=5.00D-06 EigMax=2.50D+02 EigMin=1.00D-04
 Number of steps in this run=    100 maximum allowed number of steps=    120.
 GradGradGradGradGradGradGradGradGradGradGradGradGradGradGradGradGradGrad

                          Input orientation:                          
 ---------------------------------------------------------------------
 Center     Atomic      Atomic             Coordinates (Angstroms)
 Number     Number       Type             X           Y           Z
 ---------------------------------------------------------------------
      1          6           0        4.997722   -0.152524    0.195157
      2         16           0        4.128047    1.387132   -0.080772
      3          6           0        2.635007    0.532697    0.116665
      4          7           0        1.316602    0.902573    0.074616
      5          6           0        0.520935   -0.135941    0.290051
      6         16           0        1.412137   -1.681623    0.569954
      7          6           0        2.897319   -0.829942    0.371868
      8          7           0        4.225369   -1.194628    0.411924
      9          6           0       -0.928834   -0.036144    0.300819
     10          6           0       -1.517351    1.216249    0.068698
     11          6           0       -2.904309    1.305121    0.079419
     12          9           0       -3.461850    2.488690   -0.141226
     13          6           0       -3.736363    0.210983    0.309863
     14          6           0       -3.133212   -1.021725    0.537790
     15          6           0       -1.744363   -1.149521    0.534198
     16          1           0        6.088785   -0.205942    0.182758
     17          1           0       -0.896797    2.098160   -0.115999
     18          1           0       -4.823499    0.310422    0.313421
     19          1           0       -3.754193   -1.903429    0.722051
     20          1           0       -1.321051   -2.140608    0.718543
 ---------------------------------------------------------------------
                    Distance matrix (angstroms):
                    1          2          3          4          5
     1  C    0.000000
     2  S    1.789696   0.000000
     3  C    2.461323   1.731533   0.000000
     4  N    3.831240   2.857125   1.369951   0.000000
     5  C    4.477823   3.933003   2.224059   1.325900   0.000000
     6  S    3.915997   4.149321   2.569843   2.632974   1.806023
     7  C    2.214004   2.575847   1.410929   2.364028   2.477000
     8  N    1.315103   2.630152   2.366449   3.601798   3.854672
     9  C    5.928640   5.267198   3.613649   2.444247   1.453240
    10  C    6.658506   5.649961   4.208517   2.851266   2.456018
    11  C    8.036181   7.034658   5.593035   4.240066   3.722005
    12  F    8.868682   7.669655   6.408126   5.039441   4.789287
    13  C    8.742399   7.961461   6.382412   5.105497   4.271456
    14  C    8.184436   7.675356   5.988817   4.870144   3.768127
    15  C    6.823830   6.426351   4.709891   3.713733   2.493697
    16  H    1.092441   2.540045   3.532498   4.900431   5.569324
    17  H    6.317258   5.075022   3.870199   2.522875   2.676948
    18  H    9.832837   9.024681   7.464411   6.173210   5.363093
    19  H    8.940878   8.579162   6.864625   5.831448   4.646220
    20  H    6.644796   6.540377   4.812403   4.078334   2.755941
                    6          7          8          9         10
     6  S    0.000000
     7  C    1.723474   0.000000
     8  N    2.859442   1.377795   0.000000
     9  C    2.874054   3.908275   5.283961   0.000000
    10  C    4.151002   4.875255   6.237705   1.403110   0.000000
    11  C    5.271904   6.188934   7.562513   2.398022   1.389844
    12  F    6.453916   7.191356   8.542022   3.603659   2.333292
    13  C    5.491508   6.715140   8.085502   2.818399   2.448007
    14  C    4.593115   6.035861   7.361688   2.426274   2.799925
    15  C    3.201235   4.655501   5.971154   1.399700   2.421795
    16  H    4.919206   3.257391   2.121871   7.020666   7.738794
    17  H    4.482016   4.817376   6.112097   2.174860   1.094061
    18  H    6.551123   7.804798   9.173707   3.910074   3.436718
    19  H    5.173326   6.746674   8.016981   3.412747   3.893934
    20  H    2.775440   4.430878   5.634863   2.181078   3.424810
                   11         12         13         14         15
    11  C    0.000000
    12  F    1.326790   0.000000
    13  C    1.393757   2.338117   0.000000
    14  C    2.382586   3.590554   1.391154   0.000000
    15  C    2.752738   4.079527   2.422677   1.394722   0.000000
    16  H    9.119744   9.928778   9.834812   9.264814   7.897598
    17  H    2.167303   2.594735   3.435977   3.893928   3.418853
    18  H    2.174276   2.608763   1.091680   2.163799   3.414858
    19  H    3.380839   4.485691   2.154287   1.094062   2.154782
    20  H    3.845548   5.172294   3.395693   2.137405   1.093357
                   16         17         18         19         20
    16  H    0.000000
    17  H    7.361827   0.000000
    18  H   10.925276   4.335828   0.000000
    19  H   10.002825   4.987961   2.492294   0.000000
    20  H    7.676958   4.340923   4.294044   2.444677   0.000000
 Stoichiometry    C10H5FN2S2
 Framework group  C1[X(C10H5FN2S2)]
 Deg. of freedom    54
 Full point group                 C1      NOp   1
 Largest Abelian subgroup         C1      NOp   1
 Largest concise Abelian subgroup C1      NOp   1
                         Standard orientation:                         
 ---------------------------------------------------------------------
 Center     Atomic      Atomic             Coordinates (Angstroms)
 Number     Number       Type             X           Y           Z
 ---------------------------------------------------------------------
      1          6           0       -4.387279    0.102389    0.002990
      2         16           0       -3.394148    1.591242   -0.001610
      3          6           0       -1.976247    0.597378   -0.002024
      4          7           0       -0.631909    0.861039   -0.004162
      5          6           0        0.075841   -0.260162   -0.001483
      6         16           0       -0.939224   -1.753935   -0.000077
      7          6           0       -2.349525   -0.763274    0.001659
      8          7           0       -3.703054   -1.020700    0.004567
      9          6           0        1.528926   -0.281381   -0.001324
     10          6           0        2.218240    0.940734    0.000028
     11          6           0        3.607824    0.913897    0.001025
     12          9           0        4.260612    2.068986    0.003587
     13          6           0        4.347290   -0.267521    0.000314
     14          6           0        3.645007   -1.468398   -0.000971
     15          6           0        2.250341   -1.480848   -0.001591
     16          1           0       -5.479058    0.140395    0.002955
     17          1           0        1.672146    1.888758    0.000599
     18          1           0        5.438933   -0.258500    0.000179
     19          1           0        4.191540   -2.416170   -0.001146
     20          1           0        1.747120   -2.451517   -0.002434
 ---------------------------------------------------------------------
 Rotational constants (GHZ):           1.3036214           0.2456418           0.2066945
 Standard basis: VSTO-6G (5D, 7F)
 There are    77 symmetry adapted cartesian basis functions of A   symmetry.
 There are    75 symmetry adapted basis functions of A   symmetry.
    75 basis functions,   462 primitive gaussians,    77 cartesian basis functions
    37 alpha electrons       37 beta electrons
       nuclear repulsion energy       474.1690657081 Hartrees.
 Integral buffers will be    131072 words long.
 Regular integral format.
 Two-electron integral symmetry is turned off.
 Nuclear repulsion after empirical dispersion term =      474.1629317415 Hartrees.
 Force inversion solution in PCM.
 ------------------------------------------------------------------------------
 Polarizable Continuum Model (PCM)
 =================================
 Model                : PCM.
 Atomic radii         : SMD-Coulomb.
 Polarization charges : Total charges.
 Charge compensation  : None.
 Solution method      : Matrix inversion.
 Cavity type          : VdW (van der Waals Surface) (Alpha=1.000).
 Cavity algorithm     : GePol (No added spheres)
                        Default sphere list used, NSphG=   20.
                        Lebedev-Laikov grids with approx.  5.0 points / Ang**2.
                        Smoothing algorithm: York/Karplus (Gamma=1.0000).
                        Polarization charges: spherical gaussians, with
                                              point-specific exponents (IZeta= 3).
                        Self-potential: point-specific (ISelfS= 7).
                        Self-field    : sphere-specific E.n sum rule (ISelfD= 2).
 1st derivatives      : Analytical E(r).r(x)/FMM algorithm (CHGder, D1EAlg=3).
                        Cavity 1st derivative terms included.
 2nd derivatives      : Analytical E(r).r(xy)/FMM algorithm (CHGder, D2EAlg=3).
                        Cavity 2nd derivative terms included.
 Solvent              : Acetonitrile, Eps=  35.688000 Eps(inf)=   1.806874
 ------------------------------------------------------------------------------
 Spheres list:
 ISph  on   Nord     Re0    Alpha      Xe            Ye            Ze
    1   C      1    1.8500  1.000     -4.387279      0.102389      0.002990
    2   S      2    2.4900  1.000     -3.394148      1.591242     -0.001610
    3   C      3    1.8500  1.000     -1.976247      0.597378     -0.002024
    4   N      4    1.8900  1.000     -0.631909      0.861039     -0.004162
    5   C      5    1.8500  1.000      0.075841     -0.260162     -0.001483
    6   S      6    2.4900  1.000     -0.939224     -1.753935     -0.000077
    7   C      7    1.8500  1.000     -2.349525     -0.763274      0.001659
    8   N      8    1.8900  1.000     -3.703054     -1.020700      0.004567
    9   C      9    1.8500  1.000      1.528926     -0.281381     -0.001324
   10   C     10    1.8500  1.000      2.218240      0.940734      0.000028
   11   C     11    1.8500  1.000      3.607824      0.913897      0.001025
   12   F     12    1.7300  1.000      4.260612      2.068986      0.003587
   13   C     13    1.8500  1.000      4.347290     -0.267521      0.000314
   14   C     14    1.8500  1.000      3.645007     -1.468398     -0.000971
   15   C     15    1.8500  1.000      2.250341     -1.480848     -0.001591
   16   H     16    1.2000  1.000     -5.479058      0.140395      0.002955
   17   H     17    1.2000  1.000      1.672146      1.888758      0.000599
   18   H     18    1.2000  1.000      5.438933     -0.258500      0.000179
   19   H     19    1.2000  1.000      4.191540     -2.416170     -0.001146
   20   H     20    1.2000  1.000      1.747120     -2.451517     -0.002434
 ------------------------------------------------------------------------------
 ------------------------------------------------------------------------------
 Atomic radii for non-electrostatic terms: SMD-CDS.
 ------------------------------------------------------------------------------
 Nuclear repulsion after PCM non-electrostatic terms =      474.1609758846 Hartrees.
 Do NDO integrals.
 One-electron integrals computed using PRISM.
 NBasis=    75 RedAO= F EigKep=  0.00D+00  NBF=    75
 NBsUse=    75 1.00D-04 EigRej=  0.00D+00 NBFU=    75
 Initial guess from the checkpoint file:  "/users/psyche/volatile/gaussian/chk/dyes/A2_pi4.chk"
 B after Tr=     1.143067   -0.214671    0.506424
         Rot=   -0.006343    0.041109    0.994510   -0.096022 Ang= 180.73 deg.
 Keep J ints in memory in canonical form, NReq=2109205.
 Overlap will be assumed to be unity.
 Requested convergence on RMS density matrix=1.00D-08 within 500 cycles.
 Requested convergence on MAX density matrix=1.00D-06.
 Requested convergence on             energy=1.00D-06.
 No special actions if energy rises.
 Inv3:  Mode=1 IEnd=    11151552.
 Iteration    1 A*A^-1 deviation from unit magnitude is 2.66D-15 for   1535.
 Iteration    1 A*A^-1 deviation from orthogonality  is 2.14D-15 for   1110    213.
 Iteration    1 A^-1*A deviation from unit magnitude is 3.11D-15 for   1535.
 Iteration    1 A^-1*A deviation from orthogonality  is 1.05D-14 for    475    418.
 Error on total polarization charges = -0.00025
 SCF Done:  E(RPM7) =  0.664285318808E-01 A.U. after   11 cycles
            NFock= 11  Conv=0.94D-08     -V/T= 1.0005
 SMD-CDS (non-electrostatic) energy       (kcal/mol) =      -1.23
 (included in total energy above)
 Range of M.O.s used for correlation:     1    75
 NBasis=    75 NAE=    37 NBE=    37 NFC=     0 NFV=     0
 NROrb=     75 NOA=    37 NOB=    37 NVA=    38 NVB=    38
 Symmetrizing basis deriv contribution to polar:
 IMax=3 JMax=2 DiffMx= 0.00D+00
 G2DrvN: will do    21 centers at a time, making    1 passes.
 Calling FoFCou, ICntrl=  3107 FMM=F I1Cent=   0 AccDes= 0.00D+00.
 NEqPCM:  Using equilibrium solvation (IEInf=0, Eps=  35.6880, EpsInf=   1.8069)
 G2PCM: DoFxE=T DoFxN=T DoGrad=T DoDP/DQ/DG/TGxP=FFFF NFrqRd=   0 IEInf=0 SqF1=F DoCFld=F IF1Alg=4.
 End of G2Drv F.D. properties file   721 does not exist.
 End of G2Drv F.D. properties file   722 does not exist.
 End of G2Drv F.D. properties file   788 does not exist.
          IDoAtm=11111111111111111111
 NEqPCM:  Using equilibrium solvation (IEInf=0, Eps=  35.6880, EpsInf=   1.8069)
          Differentiating once with respect to electric field.
                with respect to dipole field.
          Differentiating once with respect to nuclear coordinates.
          Electric field/nuclear overlap derivatives assumed to be zero.
 Keep J ints in memory in canonical form, NReq=10046986.
          There are    63 degrees of freedom in the 1st order CPHF.  IDoFFX=5 NUNeed=    63.
 LinEq1:  Iter=  0 NonCon=    63 RMS=2.98D-01 Max=6.70D+00 NDo=    63
 AX will form    63 AO Fock derivatives at one time.
 LinEq1:  Iter=  1 NonCon=    63 RMS=4.96D-02 Max=5.41D-01 NDo=    63
 LinEq1:  Iter=  2 NonCon=    63 RMS=1.22D-02 Max=1.60D-01 NDo=    63
 LinEq1:  Iter=  3 NonCon=    63 RMS=2.60D-03 Max=2.29D-02 NDo=    63
 LinEq1:  Iter=  4 NonCon=    63 RMS=5.73D-04 Max=9.70D-03 NDo=    63
 LinEq1:  Iter=  5 NonCon=    63 RMS=1.27D-04 Max=1.27D-03 NDo=    63
 LinEq1:  Iter=  6 NonCon=    59 RMS=2.87D-05 Max=2.85D-04 NDo=    63
 LinEq1:  Iter=  7 NonCon=    52 RMS=5.50D-06 Max=6.27D-05 NDo=    63
 LinEq1:  Iter=  8 NonCon=    29 RMS=1.33D-06 Max=1.29D-05 NDo=    63
 LinEq1:  Iter=  9 NonCon=     4 RMS=3.05D-07 Max=2.97D-06 NDo=    63
 LinEq1:  Iter= 10 NonCon=     2 RMS=6.16D-08 Max=4.32D-07 NDo=    63
 LinEq1:  Iter= 11 NonCon=     1 RMS=1.04D-08 Max=7.88D-08 NDo=    63
 LinEq1:  Iter= 12 NonCon=     0 RMS=1.83D-09 Max=1.19D-08 NDo=    63
 Linear equations converged to 1.000D-08 1.000D-07 after    12 iterations.
 Isotropic polarizability for W=    0.000000      240.83 Bohr**3.
 End of Minotr F.D. properties file   721 does not exist.
 End of Minotr F.D. properties file   722 does not exist.
 End of Minotr F.D. properties file   788 does not exist.

 **********************************************************************

            Population analysis using the SCF density.

 **********************************************************************

 Orbital symmetries:
       Occupied  (A) (A) (A) (A) (A) (A) (A) (A) (A) (A) (A) (A)
                 (A) (A) (A) (A) (A) (A) (A) (A) (A) (A) (A) (A)
                 (A) (A) (A) (A) (A) (A) (A) (A) (A) (A) (A) (A)
                 (A)
       Virtual   (A) (A) (A) (A) (A) (A) (A) (A) (A) (A) (A) (A)
                 (A) (A) (A) (A) (A) (A) (A) (A) (A) (A) (A) (A)
                 (A) (A) (A) (A) (A) (A) (A) (A) (A) (A) (A) (A)
                 (A) (A)
 The electronic state is 1-A.
 Alpha  occ. eigenvalues --   -1.52228  -1.37081  -1.34440  -1.14819  -1.03857
 Alpha  occ. eigenvalues --   -1.03149  -0.99365  -0.96304  -0.88586  -0.82541
 Alpha  occ. eigenvalues --   -0.79876  -0.75629  -0.73398  -0.70052  -0.65550
 Alpha  occ. eigenvalues --   -0.63401  -0.62778  -0.60675  -0.58608  -0.58392
 Alpha  occ. eigenvalues --   -0.56429  -0.55270  -0.54917  -0.53754  -0.52691
 Alpha  occ. eigenvalues --   -0.51412  -0.48997  -0.48133  -0.46175  -0.43396
 Alpha  occ. eigenvalues --   -0.41011  -0.40687  -0.40141  -0.39386  -0.37681
 Alpha  occ. eigenvalues --   -0.35573  -0.33861
 Alpha virt. eigenvalues --   -0.06865  -0.04367  -0.03640  -0.02710  -0.02481
 Alpha virt. eigenvalues --   -0.01615  -0.01239  -0.01101  -0.00474  -0.00414
 Alpha virt. eigenvalues --   -0.00140   0.00417   0.01078   0.02452   0.03000
 Alpha virt. eigenvalues --    0.03965   0.04173   0.05364   0.06641   0.07400
 Alpha virt. eigenvalues --    0.09497   0.09562   0.11151   0.12306   0.12932
 Alpha virt. eigenvalues --    0.13928   0.15485   0.15606   0.16463   0.16553
 Alpha virt. eigenvalues --    0.17459   0.18136   0.18887   0.19522   0.20475
 Alpha virt. eigenvalues --    0.21286   0.21435   0.21687
          Condensed to atoms (all electrons):
               1          2          3          4          5          6
     1  C    4.024889   0.000000   0.000000   0.000000   0.000000   0.000000
     2  S    0.000000   5.707264   0.000000   0.000000   0.000000   0.000000
     3  C    0.000000   0.000000   4.104997   0.000000   0.000000   0.000000
     4  N    0.000000   0.000000   0.000000   5.370860   0.000000   0.000000
     5  C    0.000000   0.000000   0.000000   0.000000   3.919572   0.000000
     6  S    0.000000   0.000000   0.000000   0.000000   0.000000   5.703963
     7  C    0.000000   0.000000   0.000000   0.000000   0.000000   0.000000
     8  N    0.000000   0.000000   0.000000   0.000000   0.000000   0.000000
     9  C    0.000000   0.000000   0.000000   0.000000   0.000000   0.000000
    10  C    0.000000   0.000000   0.000000   0.000000   0.000000   0.000000
    11  C    0.000000   0.000000   0.000000   0.000000   0.000000   0.000000
    12  F    0.000000   0.000000   0.000000   0.000000   0.000000   0.000000
    13  C    0.000000   0.000000   0.000000   0.000000   0.000000   0.000000
    14  C    0.000000   0.000000   0.000000   0.000000   0.000000   0.000000
    15  C    0.000000   0.000000   0.000000   0.000000   0.000000   0.000000
    16  H    0.000000   0.000000   0.000000   0.000000   0.000000   0.000000
    17  H    0.000000   0.000000   0.000000   0.000000   0.000000   0.000000
    18  H    0.000000   0.000000   0.000000   0.000000   0.000000   0.000000
    19  H    0.000000   0.000000   0.000000   0.000000   0.000000   0.000000
    20  H    0.000000   0.000000   0.000000   0.000000   0.000000   0.000000
               7          8          9         10         11         12
     1  C    0.000000   0.000000   0.000000   0.000000   0.000000   0.000000
     2  S    0.000000   0.000000   0.000000   0.000000   0.000000   0.000000
     3  C    0.000000   0.000000   0.000000   0.000000   0.000000   0.000000
     4  N    0.000000   0.000000   0.000000   0.000000   0.000000   0.000000
     5  C    0.000000   0.000000   0.000000   0.000000   0.000000   0.000000
     6  S    0.000000   0.000000   0.000000   0.000000   0.000000   0.000000
     7  C    4.121004   0.000000   0.000000   0.000000   0.000000   0.000000
     8  N    0.000000   5.367633   0.000000   0.000000   0.000000   0.000000
     9  C    0.000000   0.000000   4.014612   0.000000   0.000000   0.000000
    10  C    0.000000   0.000000   0.000000   4.181591   0.000000   0.000000
    11  C    0.000000   0.000000   0.000000   0.000000   3.825740   0.000000
    12  F    0.000000   0.000000   0.000000   0.000000   0.000000   7.182689
    13  C    0.000000   0.000000   0.000000   0.000000   0.000000   0.000000
    14  C    0.000000   0.000000   0.000000   0.000000   0.000000   0.000000
    15  C    0.000000   0.000000   0.000000   0.000000   0.000000   0.000000
    16  H    0.000000   0.000000   0.000000   0.000000   0.000000   0.000000
    17  H    0.000000   0.000000   0.000000   0.000000   0.000000   0.000000
    18  H    0.000000   0.000000   0.000000   0.000000   0.000000   0.000000
    19  H    0.000000   0.000000   0.000000   0.000000   0.000000   0.000000
    20  H    0.000000   0.000000   0.000000   0.000000   0.000000   0.000000
              13         14         15         16         17         18
     1  C    0.000000   0.000000   0.000000   0.000000   0.000000   0.000000
     2  S    0.000000   0.000000   0.000000   0.000000   0.000000   0.000000
     3  C    0.000000   0.000000   0.000000   0.000000   0.000000   0.000000
     4  N    0.000000   0.000000   0.000000   0.000000   0.000000   0.000000
     5  C    0.000000   0.000000   0.000000   0.000000   0.000000   0.000000
     6  S    0.000000   0.000000   0.000000   0.000000   0.000000   0.000000
     7  C    0.000000   0.000000   0.000000   0.000000   0.000000   0.000000
     8  N    0.000000   0.000000   0.000000   0.000000   0.000000   0.000000
     9  C    0.000000   0.000000   0.000000   0.000000   0.000000   0.000000
    10  C    0.000000   0.000000   0.000000   0.000000   0.000000   0.000000
    11  C    0.000000   0.000000   0.000000   0.000000   0.000000   0.000000
    12  F    0.000000   0.000000   0.000000   0.000000   0.000000   0.000000
    13  C    4.195952   0.000000   0.000000   0.000000   0.000000   0.000000
    14  C    0.000000   4.115162   0.000000   0.000000   0.000000   0.000000
    15  C    0.000000   0.000000   4.142896   0.000000   0.000000   0.000000
    16  H    0.000000   0.000000   0.000000   0.770693   0.000000   0.000000
    17  H    0.000000   0.000000   0.000000   0.000000   0.801634   0.000000
    18  H    0.000000   0.000000   0.000000   0.000000   0.000000   0.811375
    19  H    0.000000   0.000000   0.000000   0.000000   0.000000   0.000000
    20  H    0.000000   0.000000   0.000000   0.000000   0.000000   0.000000
              19         20
     1  C    0.000000   0.000000
     2  S    0.000000   0.000000
     3  C    0.000000   0.000000
     4  N    0.000000   0.000000
     5  C    0.000000   0.000000
     6  S    0.000000   0.000000
     7  C    0.000000   0.000000
     8  N    0.000000   0.000000
     9  C    0.000000   0.000000
    10  C    0.000000   0.000000
    11  C    0.000000   0.000000
    12  F    0.000000   0.000000
    13  C    0.000000   0.000000
    14  C    0.000000   0.000000
    15  C    0.000000   0.000000
    16  H    0.000000   0.000000
    17  H    0.000000   0.000000
    18  H    0.000000   0.000000
    19  H    0.821842   0.000000
    20  H    0.000000   0.815633
 Mulliken charges:
               1
     1  C   -0.024889
     2  S    0.292736
     3  C   -0.104997
     4  N   -0.370860
     5  C    0.080428
     6  S    0.296037
     7  C   -0.121004
     8  N   -0.367633
     9  C   -0.014612
    10  C   -0.181591
    11  C    0.174260
    12  F   -0.182689
    13  C   -0.195952
    14  C   -0.115162
    15  C   -0.142896
    16  H    0.229307
    17  H    0.198366
    18  H    0.188625
    19  H    0.178158
    20  H    0.184367
 Sum of Mulliken charges =   0.00000
 Mulliken charges with hydrogens summed into heavy atoms:
               1
     1  C    0.204418
     2  S    0.292736
     3  C   -0.104997
     4  N   -0.370860
     5  C    0.080428
     6  S    0.296037
     7  C   -0.121004
     8  N   -0.367633
     9  C   -0.014612
    10  C    0.016775
    11  C    0.174260
    12  F   -0.182689
    13  C   -0.007326
    14  C    0.062996
    15  C    0.041471
 APT charges:
               1
     1  C    0.631805
     2  S   -0.232917
     3  C    0.020231
     4  N   -0.818310
     5  C    1.196059
     6  S   -0.237763
     7  C    0.088613
     8  N   -0.898445
     9  C   -0.090190
    10  C   -0.407862
    11  C    0.500307
    12  F   -0.451602
    13  C   -0.356471
    14  C   -0.201467
    15  C   -0.334271
    16  H    0.371568
    17  H    0.313575
    18  H    0.343735
    19  H    0.281223
    20  H    0.282212
 Sum of APT charges =   0.00003
 APT charges with hydrogens summed into heavy atoms:
               1
     1  C    1.003373
     2  S   -0.232917
     3  C    0.020231
     4  N   -0.818310
     5  C    1.196059
     6  S   -0.237763
     7  C    0.088613
     8  N   -0.898445
     9  C   -0.090190
    10  C   -0.094286
    11  C    0.500307
    12  F   -0.451602
    13  C   -0.012736
    14  C    0.079756
    15  C   -0.052059
 Charge=             -0.0000 electrons
 Dipole moment (field-independent basis, Debye):
    X=             -0.1812    Y=             -1.8140    Z=             -0.0047  Tot=              1.8231
 N-N= 4.741609758846D+02 E-N=-7.512998812784D+02  KE=-1.461400242967D+02
  Exact polarizability: 369.348 -29.237 311.508  -0.000  -0.118  41.641
 Approx polarizability: 186.889  -8.501 172.433  -0.044  -0.095  23.220
 D2PCM: PCM CHGder 2nd derivatives, FixD1E=F FixD2E=F DoIter=F DoCFld=F I1PDM=0
 Calling FoFJK, ICntrl=    100127 FMM=F ISym2X=0 I1Cent= 0 IOpClX= 0 NMat=1 NMatS=1 NMatT=0.
 ***** Axes restored to original set *****
 -------------------------------------------------------------------
 Center     Atomic                   Forces (Hartrees/Bohr)
 Number     Number              X              Y              Z
 -------------------------------------------------------------------
      1        6           0.000077128    0.000160392    0.000049527
      2       16           0.000095057   -0.000155597    0.000038873
      3        6          -0.000094227   -0.000149234   -0.000010456
      4        7           0.000195254   -0.000049206   -0.000127643
      5        6           0.000070986   -0.000149466    0.000244795
      6       16          -0.000127629    0.000156238   -0.000189571
      7        6           0.000167293    0.000152612    0.000046060
      8        7          -0.000194120    0.000172915    0.000013097
      9        6          -0.000047028   -0.000100504   -0.000016686
     10        6          -0.000060057    0.000059534   -0.000032337
     11        6           0.000012967    0.000032547   -0.000057827
     12        9          -0.000040387   -0.000000522    0.000041784
     13        6          -0.000013182   -0.000001204    0.000062183
     14        6          -0.000052812   -0.000018626   -0.000021875
     15        6           0.000053360   -0.000037648    0.000032505
     16        1          -0.000025322    0.000000344   -0.000074273
     17        1           0.000027386    0.000016359    0.000003707
     18        1          -0.000041129   -0.000040353   -0.000027687
     19        1           0.000012044   -0.000022807    0.000019809
     20        1          -0.000015581   -0.000025774    0.000006014
 -------------------------------------------------------------------
 Cartesian Forces:  Max     0.000244795 RMS     0.000091019
 FormGI is forming the generalized inverse of G from B-inverse, IUseBI=4.

 GradGradGradGradGradGradGradGradGradGradGradGradGradGradGradGradGradGrad
 Berny optimization.
 Internal  Forces:  Max     0.000207886 RMS     0.000056106
 Search for a local minimum.
 Step number   1 out of a maximum of  100
 All quantities printed in internal units (Hartrees-Bohrs-Radians)
 Mixed Optimization -- En-DIIS/RFO-DIIS
 Second derivative matrix not updated -- analytic derivatives used.
 ITU=  0
     Eigenvalues ---   -0.00230   0.01044   0.01202   0.01292   0.01372
     Eigenvalues ---    0.02189   0.02318   0.02509   0.02563   0.02753
     Eigenvalues ---    0.02792   0.02901   0.03098   0.03191   0.03226
     Eigenvalues ---    0.03297   0.05183   0.08166   0.10195   0.10794
     Eigenvalues ---    0.11856   0.11981   0.12431   0.14071   0.14979
     Eigenvalues ---    0.15597   0.15951   0.16172   0.16690   0.16956
     Eigenvalues ---    0.17888   0.18430   0.21172   0.23651   0.25325
     Eigenvalues ---    0.25866   0.26563   0.26758   0.26923   0.27417
     Eigenvalues ---    0.27671   0.34228   0.38992   0.40851   0.47250
     Eigenvalues ---    0.50382   0.51622   0.56922   0.57875   0.58703
     Eigenvalues ---    0.65411   0.67474   0.71732   0.76003
 RFO step:  Lambda=-2.29774009D-03 EMin=-2.29769538D-03
 I=     1 Eig=   -2.30D-03 Dot1= -6.06D-06
 I=     1 Stepn= -6.00D-01 RXN=   6.00D-01 EDone=F
 Mixed    1 eigenvectors in step.  Raw Step.Grad=  6.06D-06.
 RFO eigenvector is Hessian eigenvector with negative curvature.
 Taking step of  6.00D-01 in eigenvector direction(s).  Step.Grad=  1.33D-08.
 Linear search not attempted -- first point.
 Iteration  1 RMS(Cart)=  0.09067859 RMS(Int)=  0.02153948
 Iteration  2 RMS(Cart)=  0.04910464 RMS(Int)=  0.00182710
 Iteration  3 RMS(Cart)=  0.00174733 RMS(Int)=  0.00001122
 Iteration  4 RMS(Cart)=  0.00000376 RMS(Int)=  0.00001110
 Iteration  5 RMS(Cart)=  0.00000000 RMS(Int)=  0.00001110
 Variable       Old X    -DE/DX   Delta X   Delta X   Delta X     New X
                                 (Linear)    (Quad)   (Total)
    R1        3.38203  -0.00017   0.00000   0.00004   0.00004   3.38208
    R2        2.48518  -0.00000   0.00000  -0.00000  -0.00000   2.48518
    R3        2.06441  -0.00002   0.00000   0.00001   0.00001   2.06442
    R4        3.27212   0.00006   0.00000  -0.00004  -0.00004   3.27209
    R5        2.58883  -0.00006   0.00000   0.00001   0.00000   2.58884
    R6        2.66627  -0.00021   0.00000   0.00000  -0.00001   2.66626
    R7        2.50559   0.00011   0.00000   0.00000   0.00001   2.50560
    R8        3.41289  -0.00020   0.00000  -0.00011  -0.00011   3.41278
    R9        2.74623   0.00016   0.00000  -0.00003  -0.00003   2.74620
   R10        3.25689   0.00007   0.00000   0.00003   0.00002   3.25692
   R11        2.60365  -0.00014   0.00000   0.00000   0.00000   2.60366
   R12        2.65149   0.00013   0.00000  -0.00001  -0.00001   2.65149
   R13        2.64505   0.00006   0.00000  -0.00004  -0.00003   2.64502
   R14        2.62642   0.00006   0.00000  -0.00001  -0.00001   2.62641
   R15        2.06748   0.00004   0.00000   0.00001   0.00001   2.06748
   R16        2.50727   0.00002   0.00000  -0.00000  -0.00000   2.50726
   R17        2.63382   0.00006   0.00000   0.00001   0.00001   2.63383
   R18        2.62890   0.00003   0.00000   0.00001   0.00001   2.62891
   R19        2.06298   0.00004   0.00000   0.00000   0.00000   2.06298
   R20        2.63564   0.00006   0.00000   0.00001   0.00001   2.63565
   R21        2.06748   0.00001   0.00000  -0.00000  -0.00000   2.06748
   R22        2.06615   0.00001   0.00000   0.00000   0.00000   2.06615
    A1        2.00615  -0.00011   0.00000  -0.00003  -0.00003   2.00612
    A2        2.12426   0.00006   0.00000   0.00003   0.00003   2.12429
    A3        2.15277   0.00004   0.00000  -0.00001  -0.00001   2.15277
    A4        1.54770   0.00003   0.00000   0.00001   0.00000   1.54771
    A5        2.33657   0.00003   0.00000  -0.00001  -0.00001   2.33655
    A6        1.91440  -0.00003   0.00000   0.00001   0.00001   1.91442
    A7        2.03222  -0.00001   0.00000  -0.00000  -0.00000   2.03221
    A8        1.94020   0.00007   0.00000  -0.00005  -0.00003   1.94017
    A9        1.98166  -0.00010   0.00000   0.00008   0.00004   1.98171
   A10        2.14847   0.00009   0.00000  -0.00021  -0.00028   2.14819
   A11        2.15305   0.00001   0.00000   0.00015   0.00008   2.15313
   A12        1.55529   0.00005   0.00000  -0.00002  -0.00000   1.55528
   A13        1.91541  -0.00001   0.00000   0.00000  -0.00000   1.91540
   A14        2.02649  -0.00001   0.00000  -0.00001  -0.00001   2.02648
   A15        2.34128   0.00002   0.00000   0.00001   0.00002   2.34130
   A16        1.93003   0.00011   0.00000   0.00002   0.00002   1.93005
   A17        2.06975   0.00000   0.00000  -0.00026  -0.00026   2.06948
   A18        2.12688   0.00002   0.00000   0.00017   0.00016   2.12704
   A19        2.08656  -0.00002   0.00000   0.00009   0.00010   2.08665
   A20        2.06504   0.00001   0.00000  -0.00004  -0.00004   2.06500
   A21        2.10543  -0.00002   0.00000  -0.00006  -0.00006   2.10536
   A22        2.11272   0.00001   0.00000   0.00010   0.00010   2.11282
   A23        2.06588   0.00004   0.00000   0.00001   0.00001   2.06589
   A24        2.14936  -0.00001   0.00000  -0.00002  -0.00003   2.14934
   A25        2.06794  -0.00003   0.00000   0.00001   0.00002   2.06796
   A26        2.05316   0.00001   0.00000   0.00003   0.00003   2.05319
   A27        2.12179   0.00002   0.00000  -0.00002  -0.00002   2.12177
   A28        2.10823  -0.00002   0.00000  -0.00001  -0.00001   2.10822
   A29        2.10890   0.00002   0.00000   0.00001   0.00001   2.10891
   A30        2.08934  -0.00000   0.00000  -0.00001  -0.00001   2.08933
   A31        2.08494  -0.00002   0.00000   0.00000  -0.00000   2.08494
   A32        2.10335  -0.00000   0.00000  -0.00007  -0.00008   2.10327
   A33        2.12183   0.00003   0.00000  -0.00002  -0.00004   2.12179
   A34        2.05800  -0.00003   0.00000   0.00009   0.00006   2.05807
    D1        0.00043   0.00000   0.00000  -0.00370  -0.00370  -0.00327
    D2       -3.13967  -0.00006   0.00000  -0.00206  -0.00206   3.14146
    D3       -0.00043  -0.00000   0.00000   0.00402   0.00402   0.00360
    D4        3.13964   0.00006   0.00000   0.00236   0.00236  -3.14119
    D5       -3.14095  -0.00001   0.00000   0.00321   0.00321  -3.13774
    D6       -0.00028  -0.00000   0.00000   0.00215   0.00215   0.00187
    D7        3.13999   0.00004   0.00000   0.00190   0.00190  -3.14129
    D8       -0.00063   0.00003   0.00000   0.00302   0.00302   0.00239
    D9        3.14077   0.00003   0.00000   0.00073   0.00073   3.14151
   D10        0.00012  -0.00000   0.00000  -0.00046  -0.00046  -0.00034
   D11       -0.00156   0.00004   0.00000  -0.00013  -0.00013  -0.00169
   D12        3.14097   0.00001   0.00000  -0.00132  -0.00132   3.13965
   D13        0.00249  -0.00008   0.00000  -0.00445  -0.00445  -0.00196
   D14       -3.14032  -0.00003   0.00000   0.01493   0.01493  -3.12539
   D15       -0.00288   0.00009   0.00000   0.00378   0.00378   0.00089
   D16        3.13993   0.00003   0.00000  -0.01566  -0.01567   3.12426
   D17        0.00338  -0.00003   0.00000   0.28731   0.28731   0.29069
   D18       -3.13896  -0.00002   0.00000   0.28999   0.28999  -2.84897
   D19       -3.13955   0.00003   0.00000   0.30859   0.30859  -2.83097
   D20        0.00130   0.00004   0.00000   0.31127   0.31126   0.31256
   D21        0.00234  -0.00007   0.00000  -0.00192  -0.00192   0.00043
   D22       -3.14042  -0.00003   0.00000  -0.00043  -0.00043  -3.14085
   D23        0.00020   0.00000   0.00000  -0.00231  -0.00231  -0.00210
   D24       -3.14016  -0.00004   0.00000  -0.00387  -0.00387   3.13916
   D25        3.14090   0.00001   0.00000  -0.00023  -0.00023   3.14067
   D26       -0.00036  -0.00000   0.00000  -0.00099  -0.00099  -0.00135
   D27        0.00003   0.00000   0.00000  -0.00284  -0.00284  -0.00281
   D28       -3.14123  -0.00001   0.00000  -0.00360  -0.00360   3.13836
   D29       -3.14121  -0.00001   0.00000   0.00054   0.00054  -3.14067
   D30        0.00054  -0.00001   0.00000   0.01170   0.01169   0.01224
   D31       -0.00037   0.00000   0.00000   0.00325   0.00325   0.00287
   D32        3.14138   0.00000   0.00000   0.01440   0.01440  -3.12740
   D33       -3.14049  -0.00002   0.00000   0.00090   0.00090  -3.13960
   D34        0.00037  -0.00000   0.00000   0.00044   0.00044   0.00081
   D35        0.00076  -0.00001   0.00000   0.00166   0.00166   0.00242
   D36       -3.14156   0.00001   0.00000   0.00120   0.00120  -3.14035
   D37       -0.00042   0.00000   0.00000   0.00158   0.00158   0.00116
   D38        3.14057   0.00001   0.00000   0.00012   0.00012   3.14069
   D39        3.14045   0.00002   0.00000   0.00112   0.00112   3.14157
   D40       -0.00175   0.00003   0.00000  -0.00034  -0.00034  -0.00209
   D41        0.00006   0.00001   0.00000  -0.00119  -0.00119  -0.00113
   D42       -3.14116  -0.00001   0.00000  -0.00260  -0.00260   3.13943
   D43       -3.14093  -0.00000   0.00000   0.00026   0.00026  -3.14068
   D44        0.00104  -0.00002   0.00000  -0.00115  -0.00115  -0.00011
   D45        0.00033  -0.00001   0.00000  -0.00119  -0.00119  -0.00086
   D46       -3.14142  -0.00001   0.00000  -0.01194  -0.01194   3.12982
   D47        3.14154   0.00000   0.00000   0.00021   0.00021  -3.14143
   D48       -0.00020   0.00000   0.00000  -0.01054  -0.01054  -0.01074
         Item               Value     Threshold  Converged?
 Maximum Force            0.000208     0.000015     NO 
 RMS     Force            0.000056     0.000010     NO 
 Maximum Displacement     0.673835     0.000060     NO 
 RMS     Displacement     0.138251     0.000040     NO 
 Predicted change in Energy=-4.196459D-04
 GradGradGradGradGradGradGradGradGradGradGradGradGradGradGradGradGradGrad

                          Input orientation:                          
 ---------------------------------------------------------------------
 Center     Atomic      Atomic             Coordinates (Angstroms)
 Number     Number       Type             X           Y           Z
 ---------------------------------------------------------------------
      1          6           0        4.997551   -0.149939    0.195014
      2         16           0        4.133580    1.415401    0.274774
      3          6           0        2.637338    0.543968    0.272676
      4          7           0        1.320221    0.918737    0.311718
      5          6           0        0.520764   -0.138813    0.289771
      6         16           0        1.406171   -1.710987    0.213375
      7          6           0        2.894615   -0.842119    0.215395
      8          7           0        4.221369   -1.211348    0.173977
      9          6           0       -0.928889   -0.037718    0.301940
     10          6           0       -1.518288    1.195329   -0.015724
     11          6           0       -2.905131    1.285720   -0.003543
     12          9           0       -3.463598    2.450618   -0.306019
     13          6           0       -3.736152    0.211536    0.309668
     14          6           0       -3.132027   -1.001525    0.624050
     15          6           0       -1.743242   -1.130134    0.622203
     16          1           0        6.088400   -0.203132    0.169466
     17          1           0       -0.898417    2.061483   -0.265745
     18          1           0       -4.823225    0.311707    0.312139
     19          1           0       -3.752154   -1.866594    0.877166
     20          1           0       -1.318786   -2.102189    0.887497
 ---------------------------------------------------------------------
                    Distance matrix (angstroms):
                    1          2          3          4          5
     1  C    0.000000
     2  S    1.789720   0.000000
     3  C    2.461330   1.731514   0.000000
     4  N    3.831246   2.857102   1.369953   0.000000
     5  C    4.477803   3.932969   2.224043   1.325905   0.000000
     6  S    3.916021   4.149318   2.569847   2.632966   1.805966
     7  C    2.214017   2.575841   1.410926   2.364024   2.476962
     8  N    1.315101   2.630148   2.366439   3.601791   3.854636
     9  C    5.928467   5.266962   3.613473   2.444054   1.453225
    10  C    6.656600   5.663607   4.216239   2.870689   2.455808
    11  C    8.034483   7.045405   5.598701   4.252960   3.721838
    12  F    8.865944   7.689350   6.418070   5.060947   4.789077
    13  C    8.741932   7.961356   6.382260   5.105589   4.271355
    14  C    8.185310   7.665023   5.983108   4.858752   3.768142
    15  C    6.825068   6.413851   4.702580   3.698523   2.493782
    16  H    1.092444   2.540091   3.532512   4.900444   5.569307
    17  H    6.313884   5.102017   3.885140   2.561580   2.676561
    18  H    9.832318   9.024627   7.464281   6.173363   5.362992
    19  H    8.942571   8.562661   6.855787   5.814360   4.646298
    20  H    6.647324   6.517450   4.799069   4.052390   2.756096
                    6          7          8          9         10
     6  S    0.000000
     7  C    1.723485   0.000000
     8  N    2.859464   1.377796   0.000000
     9  C    2.874053   3.908163   5.283838   0.000000
    10  C    4.129361   4.866038   6.226697   1.403106   0.000000
    11  C    5.254962   6.181641   7.553401   2.397986   1.389838
    12  F    6.426770   7.179196   8.526378   3.603634   2.333292
    13  C    5.490797   6.714621   8.084872   2.818316   2.447988
    14  C    4.611641   6.042584   7.370144   2.426210   2.799934
    15  C    3.228518   4.664564   5.981980   1.399682   2.421844
    16  H    4.919230   3.257403   2.121868   7.020489   7.736388
    17  H    4.446596   4.800989   6.092372   2.174820   1.094063
    18  H    6.550299   7.804212   9.172975   3.909993   3.436697
    19  H    5.203186   6.757738   8.031245   3.412696   3.893941
    20  H    2.834231   4.448847   5.656503   2.181040   3.424796
                   11         12         13         14         15
    11  C    0.000000
    12  F    1.326787   0.000000
    13  C    1.393760   2.338128   0.000000
    14  C    2.382613   3.590579   1.391158   0.000000
    15  C    2.752797   4.079584   2.422694   1.394729   0.000000
    16  H    9.117577   9.925177   9.834298   9.266086   7.899298
    17  H    2.167362   2.594841   3.436007   3.893940   3.418859
    18  H    2.174268   2.608763   1.091681   2.163797   3.414870
    19  H    3.380855   4.485701   2.154283   1.094061   2.154787
    20  H    3.845565   5.172306   3.395713   2.137454   1.093359
                   16         17         18         19         20
    16  H    0.000000
    17  H    7.357548   0.000000
    18  H   10.924695   4.335871   0.000000
    19  H   10.005221   4.987971   2.492277   0.000000
    20  H    7.680389   4.340834   4.294068   2.444768   0.000000
 Stoichiometry    C10H5FN2S2
 Framework group  C1[X(C10H5FN2S2)]
 Deg. of freedom    54
 Full point group                 C1      NOp   1
 Largest Abelian subgroup         C1      NOp   1
 Largest concise Abelian subgroup C1      NOp   1
                         Standard orientation:                         
 ---------------------------------------------------------------------
 Center     Atomic      Atomic             Coordinates (Angstroms)
 Number     Number       Type             X           Y           Z
 ---------------------------------------------------------------------
      1          6           0       -4.386498    0.102165    0.058539
      2         16           0       -3.399732    1.574412   -0.190213
      3          6           0       -1.978722    0.589828   -0.092925
      4          7           0       -0.636032    0.850082   -0.171824
      5          6           0        0.075638   -0.260236   -0.034914
      6         16           0       -0.933073   -1.737880    0.211226
      7          6           0       -2.346518   -0.756462    0.114297
      8          7           0       -3.698346   -1.010188    0.194953
      9          6           0        1.528569   -0.278987   -0.057349
     10          6           0        2.218181    0.929285    0.124911
     11          6           0        3.607644    0.905022    0.103599
     12          9           0        4.260800    2.046638    0.278142
     13          6           0        4.346626   -0.260595   -0.090851
     14          6           0        3.643977   -1.447515   -0.272023
     15          6           0        2.249407   -1.462079   -0.256838
     16          1           0       -5.477830    0.140718    0.089232
     17          1           0        1.672338    1.864818    0.279208
     18          1           0        5.438178   -0.249798   -0.103702
     19          1           0        4.190137   -2.382328   -0.429514
     20          1           0        1.745692   -2.419472   -0.415283
 ---------------------------------------------------------------------
 Rotational constants (GHZ):           1.3051394           0.2446990           0.2073974
 Standard basis: VSTO-6G (5D, 7F)
 There are    77 symmetry adapted cartesian basis functions of A   symmetry.
 There are    75 symmetry adapted basis functions of A   symmetry.
    75 basis functions,   462 primitive gaussians,    77 cartesian basis functions
    37 alpha electrons       37 beta electrons
       nuclear repulsion energy       474.1123654676 Hartrees.
 Integral buffers will be    131072 words long.
 Regular integral format.
 Two-electron integral symmetry is turned off.
 Nuclear repulsion after empirical dispersion term =      474.1062315566 Hartrees.
 Force inversion solution in PCM.
 ------------------------------------------------------------------------------
 Polarizable Continuum Model (PCM)
 =================================
 Model                : PCM.
 Atomic radii         : SMD-Coulomb.
 Polarization charges : Total charges.
 Charge compensation  : None.
 Solution method      : Matrix inversion.
 Cavity type          : VdW (van der Waals Surface) (Alpha=1.000).
 Cavity algorithm     : GePol (No added spheres)
                        Default sphere list used, NSphG=   20.
                        Lebedev-Laikov grids with approx.  5.0 points / Ang**2.
                        Smoothing algorithm: York/Karplus (Gamma=1.0000).
                        Polarization charges: spherical gaussians, with
                                              point-specific exponents (IZeta= 3).
                        Self-potential: point-specific (ISelfS= 7).
                        Self-field    : sphere-specific E.n sum rule (ISelfD= 2).
 1st derivatives      : Analytical E(r).r(x)/FMM algorithm (CHGder, D1EAlg=3).
                        Cavity 1st derivative terms included.
 Solvent              : Acetonitrile, Eps=  35.688000 Eps(inf)=   1.806874
 ------------------------------------------------------------------------------
 Spheres list:
 ISph  on   Nord     Re0    Alpha      Xe            Ye            Ze
    1   C      1    1.8500  1.000     -4.386498      0.102165      0.058539
    2   S      2    2.4900  1.000     -3.399732      1.574412     -0.190213
    3   C      3    1.8500  1.000     -1.978722      0.589828     -0.092925
    4   N      4    1.8900  1.000     -0.636032      0.850082     -0.171824
    5   C      5    1.8500  1.000      0.075638     -0.260236     -0.034914
    6   S      6    2.4900  1.000     -0.933073     -1.737880      0.211226
    7   C      7    1.8500  1.000     -2.346518     -0.756462      0.114297
    8   N      8    1.8900  1.000     -3.698346     -1.010188      0.194953
    9   C      9    1.8500  1.000      1.528569     -0.278987     -0.057349
   10   C     10    1.8500  1.000      2.218181      0.929285      0.124911
   11   C     11    1.8500  1.000      3.607644      0.905022      0.103599
   12   F     12    1.7300  1.000      4.260800      2.046638      0.278142
   13   C     13    1.8500  1.000      4.346626     -0.260595     -0.090851
   14   C     14    1.8500  1.000      3.643977     -1.447515     -0.272023
   15   C     15    1.8500  1.000      2.249407     -1.462079     -0.256838
   16   H     16    1.2000  1.000     -5.477830      0.140718      0.089232
   17   H     17    1.2000  1.000      1.672338      1.864818      0.279208
   18   H     18    1.2000  1.000      5.438178     -0.249798     -0.103702
   19   H     19    1.2000  1.000      4.190137     -2.382328     -0.429514
   20   H     20    1.2000  1.000      1.745692     -2.419472     -0.415283
 ------------------------------------------------------------------------------
 ------------------------------------------------------------------------------
 Atomic radii for non-electrostatic terms: SMD-CDS.
 ------------------------------------------------------------------------------
 Nuclear repulsion after PCM non-electrostatic terms =      474.1042757720 Hartrees.
 Do NDO integrals.
 One-electron integrals computed using PRISM.
 NBasis=    75 RedAO= F EigKep=  0.00D+00  NBF=    75
 NBsUse=    75 1.00D-04 EigRej=  0.00D+00 NBFU=    75
 Initial guess from the checkpoint file:  "/users/psyche/volatile/gaussian/chk/dyes/A2_pi4.chk"
 B after Tr=     0.000000    0.000000    0.000000
         Rot=    1.000000   -0.000079   -0.000028   -0.000290 Ang=  -0.03 deg.
 Keep J ints in memory in canonical form, NReq=2109095.
 Overlap will be assumed to be unity.
 Requested convergence on RMS density matrix=1.00D-08 within 500 cycles.
 Requested convergence on MAX density matrix=1.00D-06.
 Requested convergence on             energy=1.00D-06.
 No special actions if energy rises.
 Inv3:  Mode=1 IEnd=    11128428.
 Iteration    1 A*A^-1 deviation from unit magnitude is 2.89D-15 for    750.
 Iteration    1 A*A^-1 deviation from orthogonality  is 2.00D-15 for    627    116.
 Iteration    1 A^-1*A deviation from unit magnitude is 2.89D-15 for    750.
 Iteration    1 A^-1*A deviation from orthogonality  is 2.44D-15 for   1700    509.
 Error on total polarization charges = -0.00027
 SCF Done:  E(RPM7) =  0.660336312563E-01 A.U. after   15 cycles
            NFock= 15  Conv=0.41D-08     -V/T= 1.0005
 SMD-CDS (non-electrostatic) energy       (kcal/mol) =      -1.23
 (included in total energy above)
 Range of M.O.s used for correlation:     1    75
 NBasis=    75 NAE=    37 NBE=    37 NFC=     0 NFV=     0
 NROrb=     75 NOA=    37 NOB=    37 NVA=    38 NVB=    38
 Symmetrizing basis deriv contribution to polar:
 IMax=3 JMax=2 DiffMx= 0.00D+00
 D1PCM: PCM CHGder 1st derivatives, ID1Alg=3 FixD1E=F DoIter=F DoCFld=F I1PDM=0.
 Calling FoFJK, ICntrl=      2127 FMM=F ISym2X=0 I1Cent= 0 IOpClX= 0 NMat=1 NMatS=1 NMatT=0.
 ***** Axes restored to original set *****
 -------------------------------------------------------------------
 Center     Atomic                   Forces (Hartrees/Bohr)
 Number     Number              X              Y              Z
 -------------------------------------------------------------------
      1        6           0.000081009    0.000039535    0.000234227
      2       16           0.000042855   -0.000067376   -0.000058527
      3        6           0.000041013   -0.000225659    0.000006484
      4        7          -0.000574266   -0.000036061    0.000406856
      5        6           0.000698235    0.000156652   -0.000012417
      6       16          -0.000842638    0.000024701   -0.000443030
      7        6           0.000121263    0.000205271    0.000022638
      8        7          -0.000111102    0.000187382   -0.000033235
      9        6          -0.000641265   -0.000228063   -0.000124965
     10        6           0.000472516   -0.000004876   -0.000249163
     11        6          -0.000053244    0.000004118   -0.000032307
     12        9          -0.000027739    0.000006236    0.000016534
     13        6           0.000021654   -0.000011160    0.000025015
     14        6          -0.000146673    0.000060740   -0.000044546
     15        6           0.000379251    0.000052524    0.000483629
     16        1           0.000005032    0.000011661   -0.000101353
     17        1           0.000092573   -0.000151641   -0.000103003
     18        1          -0.000041069   -0.000044881   -0.000028317
     19        1          -0.000007509   -0.000043354    0.000002774
     20        1           0.000490103    0.000064253    0.000032707
 -------------------------------------------------------------------
 Cartesian Forces:  Max     0.000842638 RMS     0.000245956

 GradGradGradGradGradGradGradGradGradGradGradGradGradGradGradGradGradGrad
 Berny optimization.
 Using GEDIIS/GDIIS optimizer.
 FormGI is forming the generalized inverse of G from B-inverse, IUseBI=4.
 Internal  Forces:  Max     0.000870819 RMS     0.000238354
 Search for a local minimum.
 Step number   2 out of a maximum of  100
 All quantities printed in internal units (Hartrees-Bohrs-Radians)
 Mixed Optimization -- En-DIIS/RFO-DIIS
 Swapping is turned off.
 Update second derivatives using D2CorX and points    1    2
 ITU=  0  0
     Eigenvalues ---   -0.00183   0.01044   0.01201   0.01292   0.01372
     Eigenvalues ---    0.02189   0.02317   0.02508   0.02562   0.02753
     Eigenvalues ---    0.02790   0.02901   0.03098   0.03189   0.03225
     Eigenvalues ---    0.03296   0.05181   0.08166   0.10195   0.10790
     Eigenvalues ---    0.11852   0.11977   0.12414   0.14069   0.14978
     Eigenvalues ---    0.15597   0.15948   0.16165   0.16664   0.16866
     Eigenvalues ---    0.17873   0.18422   0.21123   0.23526   0.25323
     Eigenvalues ---    0.25858   0.26546   0.26758   0.26911   0.27417
     Eigenvalues ---    0.27671   0.34173   0.38992   0.40827   0.47250
     Eigenvalues ---    0.50380   0.51600   0.56919   0.57724   0.58703
     Eigenvalues ---    0.65410   0.67362   0.71699   0.75984
 Use linear search instead of GDIIS.
 RFO step:  Lambda=-2.35535330D-03 EMin=-1.83106488D-03
 Skip linear search -- no minimum in search direction.
 Iteration  1 RMS(Cart)=  0.09148085 RMS(Int)=  0.03584144
 Iteration  2 RMS(Cart)=  0.08378979 RMS(Int)=  0.00530916
 Iteration  3 RMS(Cart)=  0.00501609 RMS(Int)=  0.00002141
 Iteration  4 RMS(Cart)=  0.00003160 RMS(Int)=  0.00001641
 Iteration  5 RMS(Cart)=  0.00000000 RMS(Int)=  0.00001641
 Variable       Old X    -DE/DX   Delta X   Delta X   Delta X     New X
                                 (Linear)    (Quad)   (Total)
    R1        3.38208  -0.00008   0.00000   0.00034   0.00034   3.38242
    R2        2.48518  -0.00003   0.00000  -0.00010  -0.00009   2.48509
    R3        2.06442   0.00001   0.00000   0.00015   0.00015   2.06457
    R4        3.27209   0.00006   0.00000  -0.00021  -0.00021   3.27187
    R5        2.58884   0.00009   0.00000   0.00216   0.00216   2.59100
    R6        2.66626  -0.00008   0.00000  -0.00034  -0.00035   2.66591
    R7        2.50560  -0.00046   0.00000  -0.00219  -0.00219   2.50341
    R8        3.41278  -0.00053   0.00000  -0.00397  -0.00396   3.40882
    R9        2.74620  -0.00056   0.00000  -0.00063  -0.00063   2.74557
   R10        3.25692   0.00021   0.00000   0.00313   0.00312   3.26004
   R11        2.60366  -0.00007   0.00000  -0.00021  -0.00021   2.60345
   R12        2.65149  -0.00039   0.00000  -0.00202  -0.00202   2.64947
   R13        2.64502  -0.00061   0.00000  -0.00139  -0.00138   2.64363
   R14        2.62641   0.00011   0.00000   0.00073   0.00072   2.62714
   R15        2.06748  -0.00004   0.00000  -0.00093  -0.00093   2.06655
   R16        2.50726   0.00002   0.00000  -0.00011  -0.00011   2.50715
   R17        2.63383   0.00020   0.00000   0.00031   0.00031   2.63413
   R18        2.62891   0.00015   0.00000   0.00057   0.00057   2.62947
   R19        2.06298   0.00004   0.00000   0.00032   0.00032   2.06329
   R20        2.63565   0.00015   0.00000   0.00003   0.00003   2.63568
   R21        2.06748   0.00003   0.00000   0.00006   0.00006   2.06754
   R22        2.06615   0.00013   0.00000   0.00052   0.00052   2.06667
    A1        2.00612  -0.00010   0.00000  -0.00059  -0.00059   2.00553
    A2        2.12429   0.00007   0.00000   0.00055   0.00055   2.12484
    A3        2.15277   0.00003   0.00000   0.00005   0.00005   2.15281
    A4        1.54771   0.00003   0.00000   0.00013   0.00013   1.54784
    A5        2.33655   0.00002   0.00000  -0.00011  -0.00011   2.33645
    A6        1.91442  -0.00001   0.00000   0.00010   0.00010   1.91452
    A7        2.03221  -0.00001   0.00000   0.00001   0.00000   2.03222
    A8        1.94017  -0.00036   0.00000  -0.00373  -0.00372   1.93645
    A9        1.98171   0.00063   0.00000   0.00582   0.00579   1.98750
   A10        2.14819   0.00024   0.00000   0.00295   0.00289   2.15108
   A11        2.15313  -0.00087   0.00000  -0.00905  -0.00910   2.14403
   A12        1.55528  -0.00031   0.00000  -0.00284  -0.00284   1.55245
   A13        1.91540   0.00005   0.00000   0.00073   0.00072   1.91613
   A14        2.02648  -0.00005   0.00000  -0.00019  -0.00019   2.02630
   A15        2.34130  -0.00000   0.00000  -0.00054  -0.00054   2.34076
   A16        1.93005   0.00013   0.00000   0.00053   0.00053   1.93058
   A17        2.06948   0.00005   0.00000  -0.00124  -0.00124   2.06824
   A18        2.12704  -0.00070   0.00000  -0.00518  -0.00518   2.12186
   A19        2.08665   0.00065   0.00000   0.00641   0.00641   2.09307
   A20        2.06500  -0.00029   0.00000  -0.00397  -0.00398   2.06102
   A21        2.10536  -0.00001   0.00000  -0.00035  -0.00036   2.10501
   A22        2.11282   0.00030   0.00000   0.00433   0.00432   2.11714
   A23        2.06589   0.00006   0.00000   0.00016   0.00017   2.06605
   A24        2.14934  -0.00009   0.00000  -0.00033  -0.00033   2.14900
   A25        2.06796   0.00003   0.00000   0.00016   0.00017   2.06812
   A26        2.05319   0.00007   0.00000   0.00212   0.00211   2.05530
   A27        2.12177  -0.00001   0.00000  -0.00084  -0.00084   2.12093
   A28        2.10822  -0.00005   0.00000  -0.00127  -0.00127   2.10695
   A29        2.10891  -0.00013   0.00000  -0.00105  -0.00105   2.10786
   A30        2.08933   0.00007   0.00000   0.00027   0.00027   2.08960
   A31        2.08494   0.00006   0.00000   0.00078   0.00078   2.08572
   A32        2.10327  -0.00021   0.00000  -0.00318  -0.00320   2.10008
   A33        2.12179  -0.00038   0.00000  -0.00528  -0.00530   2.11649
   A34        2.05807   0.00058   0.00000   0.00834   0.00832   2.06639
    D1       -0.00327   0.00006   0.00000  -0.00164  -0.00164  -0.00491
    D2        3.14146  -0.00008   0.00000  -0.00410  -0.00410   3.13736
    D3        0.00360  -0.00006   0.00000   0.00188   0.00188   0.00547
    D4       -3.14119   0.00008   0.00000   0.00439   0.00439  -3.13680
    D5       -3.13774  -0.00003   0.00000  -0.00035  -0.00035  -3.13808
    D6        0.00187  -0.00004   0.00000   0.00086   0.00086   0.00273
    D7       -3.14129   0.00004   0.00000   0.00599   0.00599  -3.13531
    D8        0.00239   0.00004   0.00000   0.00472   0.00472   0.00711
    D9        3.14151   0.00002   0.00000  -0.00082  -0.00083   3.14068
   D10       -0.00034   0.00001   0.00000  -0.00003  -0.00003  -0.00037
   D11       -0.00169   0.00002   0.00000   0.00016   0.00014  -0.00154
   D12        3.13965   0.00001   0.00000   0.00095   0.00094   3.14059
   D13       -0.00196  -0.00008   0.00000  -0.00730  -0.00733  -0.00929
   D14       -3.12539  -0.00008   0.00000   0.00993   0.01002  -3.11538
   D15        0.00089   0.00008   0.00000   0.00637   0.00640   0.00729
   D16        3.12426   0.00009   0.00000  -0.01078  -0.01073   3.11353
   D17        0.29069   0.00054   0.00000   0.36291   0.36293   0.65362
   D18       -2.84897   0.00056   0.00000   0.36682   0.36683  -2.48214
   D19       -2.83097   0.00052   0.00000   0.38166   0.38165  -2.44932
   D20        0.31256   0.00053   0.00000   0.38557   0.38554   0.69810
   D21        0.00043  -0.00005   0.00000  -0.00342  -0.00342  -0.00299
   D22       -3.14085  -0.00004   0.00000  -0.00441  -0.00441   3.13792
   D23       -0.00210   0.00003   0.00000  -0.00120  -0.00120  -0.00330
   D24        3.13916   0.00002   0.00000  -0.00016  -0.00015   3.13900
   D25        3.14067  -0.00002   0.00000  -0.00022  -0.00023   3.14044
   D26       -0.00135   0.00005   0.00000   0.00542   0.00541   0.00406
   D27       -0.00281  -0.00003   0.00000  -0.00405  -0.00407  -0.00688
   D28        3.13836   0.00004   0.00000   0.00159   0.00157   3.13993
   D29       -3.14067   0.00003   0.00000   0.00259   0.00260  -3.13807
   D30        0.01224   0.00002   0.00000   0.01500   0.01496   0.02720
   D31        0.00287   0.00004   0.00000   0.00655   0.00656   0.00944
   D32       -3.12740   0.00003   0.00000   0.01896   0.01892  -3.10848
   D33       -3.13960   0.00001   0.00000   0.00084   0.00085  -3.13875
   D34        0.00081   0.00000   0.00000  -0.00115  -0.00115  -0.00034
   D35        0.00242  -0.00006   0.00000  -0.00482  -0.00483  -0.00241
   D36       -3.14035  -0.00007   0.00000  -0.00682  -0.00683   3.13600
   D37        0.00116   0.00001   0.00000   0.00381   0.00381   0.00497
   D38        3.14069   0.00002   0.00000   0.00274   0.00274  -3.13976
   D39        3.14157   0.00000   0.00000   0.00181   0.00181  -3.13981
   D40       -0.00209   0.00001   0.00000   0.00074   0.00073  -0.00135
   D41       -0.00113  -0.00000   0.00000  -0.00126  -0.00126  -0.00239
   D42        3.13943  -0.00000   0.00000  -0.00258  -0.00259   3.13684
   D43       -3.14068  -0.00001   0.00000  -0.00020  -0.00020  -3.14087
   D44       -0.00011  -0.00001   0.00000  -0.00152  -0.00153  -0.00164
   D45       -0.00086  -0.00002   0.00000  -0.00385  -0.00384  -0.00470
   D46        3.12982  -0.00002   0.00000  -0.01590  -0.01593   3.11389
   D47       -3.14143  -0.00002   0.00000  -0.00253  -0.00251   3.13925
   D48       -0.01074  -0.00002   0.00000  -0.01457  -0.01461  -0.02535
         Item               Value     Threshold  Converged?
 Maximum Force            0.000871     0.000015     NO 
 RMS     Force            0.000238     0.000010     NO 
 Maximum Displacement     0.845942     0.000060     NO 
 RMS     Displacement     0.173183     0.000040     NO 
 Predicted change in Energy=-1.355209D-03
 GradGradGradGradGradGradGradGradGradGradGradGradGradGradGradGradGradGrad

                          Input orientation:                          
 ---------------------------------------------------------------------
 Center     Atomic      Atomic             Coordinates (Angstroms)
 Number     Number       Type             X           Y           Z
 ---------------------------------------------------------------------
      1          6           0        4.993403   -0.155345    0.204846
      2         16           0        4.139740    1.332861    0.714991
      3          6           0        2.637464    0.510744    0.459958
      4          7           0        1.321734    0.871966    0.595166
      5          6           0        0.519527   -0.133817    0.279217
      6         16           0        1.389670   -1.628179   -0.234278
      7          6           0        2.885113   -0.806293    0.019198
      8          7           0        4.209421   -1.161418   -0.115385
      9          6           0       -0.929742   -0.033013    0.298121
     10          6           0       -1.522520    1.166087   -0.121976
     11          6           0       -2.909896    1.252663   -0.101718
     12          9           0       -3.476987    2.383614   -0.501176
     13          6           0       -3.732436    0.207118    0.314554
     14          6           0       -3.121540   -0.971178    0.732380
     15          6           0       -1.732289   -1.094789    0.728947
     16          1           0        6.084013   -0.208490    0.168093
     17          1           0       -0.905825    2.003757   -0.459464
     18          1           0       -4.820043    0.303194    0.318221
     19          1           0       -3.736356   -1.810859    1.069982
     20          1           0       -1.292352   -2.028623    1.090121
 ---------------------------------------------------------------------
                    Distance matrix (angstroms):
                    1          2          3          4          5
     1  C    0.000000
     2  S    1.789901   0.000000
     3  C    2.461546   1.731402   0.000000
     4  N    3.832606   2.857961   1.371097   0.000000
     5  C    4.474546   3.930265   2.221212   1.324749   0.000000
     6  S    3.917776   4.151115   2.571760   2.635018   1.803869
     7  C    2.214291   2.575694   1.410740   2.364835   2.473021
     8  N    1.315051   2.629792   2.366050   3.602536   3.850583
     9  C    5.925143   5.266787   3.612039   2.444662   1.452894
    10  C    6.656595   5.726214   4.251305   2.947980   2.453704
    11  C    8.033592   7.097240   5.624867   4.305493   3.718653
    12  F    8.870868   7.784451   6.466679   5.149250   4.787337
    13  C    8.734053   7.962337   6.378790   5.105429   4.265756
    14  C    8.172893   7.618076   5.952851   4.812348   3.763496
    15  C    6.811181   6.354086   4.663136   3.634980   2.489257
    16  H    1.092522   2.540680   3.532872   4.901946   5.566096
    17  H    6.316955   5.223712   3.953393   2.712050   2.673293
    18  H    9.824807   9.027478   7.461741   6.174271   5.357565
    19  H    8.927368   8.487750   6.810841   5.745196   4.642233
    20  H    6.618429   6.399057   4.721117   3.935968   2.744223
                    6          7          8          9         10
     6  S    0.000000
     7  C    1.725137   0.000000
     8  N    2.860594   1.377685   0.000000
[...]
 07563033,0.05363600,-0.01835779,-0.00417431,-0.00315390,0.00332191,0.0
 1599991,0.01166756,-0.04219644,-0.01560900,-0.01157426,-0.29812479,0.0
 6504207,0.04423100,0.64238349,-0.20202179,-0.24985332,-0.14002934,0.01
 209015,-0.06033887,-0.05546312,0.03801380,-0.02074020,-0.02330743,-0.0
 0385009,-0.00433469,-0.00547991,-0.00043041,0.00459399,0.00301704,-0.0
 0966648,0.00232371,0.00150099,0.09887415,-0.08284128,-0.01744597,0.079
 87970,0.41235279,-0.14386597,-0.13987789,-0.15219174,0.00831710,-0.055
 78953,-0.02206913,0.02706684,-0.02290284,-0.00367555,-0.00295156,-0.00
 548737,-0.00047339,-0.00010913,0.00309771,0.00260188,-0.00718103,0.001
 55969,0.00132579,0.06849148,-0.01781090,-0.06929124,0.05962934,0.23936
 172,0.24363573,-0.00027996,-0.00023942,-0.00018903,-0.00074531,-0.0001
 8999,-0.00019334,0.00360993,-0.00381565,-0.00198865,-0.05485592,-0.018
 74207,-0.01219261,-0.28297877,0.02037010,0.00503556,-0.01747891,0.0107
 3816,0.00582626,0.00065433,0.00227936,0.00169606,0.00003908,0.00025127
 ,-0.00005785,0.73790467,0.00001839,0.00001918,0.00008048,0.00008653,0.
 00048077,0.00027893,-0.00274449,0.00095880,-0.00530986,-0.02376329,0.0
 0039507,-0.00086075,0.01890361,-0.05166973,0.00076991,0.01577024,-0.00
 373295,-0.00515821,0.00137376,-0.00192769,-0.00211694,0.00005742,0.000
 38469,-0.00015949,-0.00066291,0.62539600,0.00001748,0.00010949,-0.0000
 2983,0.00008625,0.00025872,0.00028334,-0.00180403,-0.00512021,0.004695
 10,-0.01776430,0.00019429,-0.00012174,0.00690026,-0.00210058,-0.058326
 36,0.00979489,-0.00454314,0.00036074,0.00080525,-0.00185627,-0.0004787
 7,0.00001677,-0.00020518,0.00051098,-0.01644391,-0.21458750,0.27177631
 ,0.00002252,-0.00000319,0.00001978,0.00013087,0.00002669,0.00005504,-0
 .00084566,-0.00012175,0.00099480,-0.00059402,0.00178289,-0.00133879,-0
 .03847260,0.02741045,-0.01162971,-0.00084353,0.00019925,0.00009188,-0.
 00043362,-0.00021210,-0.00014029,0.00007263,-0.00011950,0.00012203,-0.
 13174675,0.04157255,-0.01842089,0.70556197,0.00001531,0.00007090,0.000
 09785,-0.00001632,-0.00007764,-0.00005188,0.00069186,-0.00030850,-0.00
 023368,-0.00160836,-0.00121842,0.00003533,0.02536519,-0.00633301,0.005
 36262,-0.00038693,0.00007913,0.00001215,0.00005199,0.00021054,0.000261
 94,-0.00003574,-0.00002782,-0.00009148,0.13729205,-0.26198058,0.087390
 85,-0.04569406,0.55837274,-0.00001104,0.00021245,0.00013406,0.00002393
 ,-0.00006257,-0.00007567,0.00014128,0.00009775,0.00012822,-0.00104052,
 -0.00058092,-0.00062093,-0.00845063,0.00649382,0.00452721,0.00059856,-
 0.00032193,-0.00016002,0.00003076,-0.00001457,-0.00021300,-0.00014586,
 -0.00011027,-0.00010866,-0.06635121,0.09114938,-0.11070269,-0.00209058
 ,-0.19874572,0.24337355,-0.00003830,0.00011364,0.00009029,-0.00003803,
 -0.00006919,-0.00003114,0.00048665,-0.00008365,-0.00002575,-0.00071821
 ,-0.00020545,0.00000464,0.00184581,0.00067601,-0.00058149,-0.00030811,
 -0.00001549,0.00002179,0.00016394,0.00011913,0.00027156,-0.00016097,-0
 .00009046,-0.00011661,-0.04190564,0.12547921,-0.05874914,-0.35522829,-
 0.05385708,0.03933731,0.77814716,-0.00009674,0.00018402,0.00009693,0.0
 0002731,-0.00003657,0.00000796,-0.00050939,0.00047592,0.00020632,0.000
 22249,0.00005260,0.00013382,0.00340354,-0.00179916,0.00209841,-0.00022
 348,0.00042094,0.00025208,-0.00043989,-0.00024517,-0.00024012,-0.00011
 240,-0.00008456,-0.00009514,0.03541953,0.02665284,-0.01198849,0.049655
 86,-0.08511770,0.00622936,-0.05861565,0.71357131,0.00003842,-0.0001457
 5,-0.00007775,-0.00006052,-0.00000601,-0.00003299,0.00051892,-0.000054
 01,-0.00036393,0.00065821,-0.00015343,0.00011920,-0.00167908,0.0033718
 4,0.00418420,-0.00052088,-0.00018071,-0.00019066,0.00021156,0.00036166
 ,0.00028708,0.00007088,0.00007714,0.00006748,-0.01528468,-0.01661487,0
 .01315416,-0.01113592,0.01081505,-0.07258788,-0.00041093,-0.27776039,0
 .27686782,-0.00002876,-0.00001686,-0.00001497,0.00001790,-0.00000125,0
 .00000305,-0.00026688,0.00014158,0.00013870,0.00022263,0.00011593,0.00
 002339,-0.00044635,0.00031233,-0.00046046,0.00001053,0.00014508,0.0000
 8201,-0.00023663,-0.00014825,-0.00009353,0.00003517,0.00001864,0.00003
 617,-0.00259508,-0.00162804,0.00108336,-0.04647669,0.04154759,-0.01787
 608,-0.13459743,0.17092330,-0.07925265,0.17731614,0.00003833,-0.000084
 08,-0.00003809,0.00001157,0.00003618,0.00003298,0.00018980,-0.00016510
 ,-0.00012368,-0.00013313,-0.00003062,-0.00000145,0.00041539,-0.0000034
 8,0.00002830,-0.00004452,-0.00009500,-0.00001629,0.00015678,0.00010435
 ,0.00010987,0.00001265,0.00004895,-0.00001260,-0.00134967,0.00202179,0
 .00204806,0.03322394,-0.01435257,0.00825724,0.17055366,-0.34775365,0.1
 4405400,-0.20354356,0.42096702,-0.00001396,0.00002588,0.00000817,0.000
 00119,-0.00000728,-0.00001031,-0.00010978,0.00005633,0.00006810,0.0000
 7023,0.00007495,-0.00000423,-0.00024357,-0.00020703,-0.00020382,0.0000
 1813,0.00003979,0.00001296,-0.00005841,-0.00004689,-0.00006763,-0.0000
 0985,-0.00001823,0.00001307,0.00115417,0.00197657,0.00467208,-0.013892
 36,0.00798333,0.00259262,-0.07912226,0.14395467,-0.10434360,0.09243529
 ,-0.18723859,0.10676846,-0.00006408,0.00006186,0.00004091,0.00004614,0
 .00001137,0.00001278,-0.00048516,0.00027331,0.00027008,0.00038529,0.00
 013066,-0.00002226,0.00083530,-0.00047283,-0.00043873,0.00008270,0.000
 23807,0.00023099,-0.00034719,-0.00028269,-0.00021473,-0.00002848,-0.00
 002414,-0.00004303,-0.00633565,-0.00577540,0.00324997,-0.05268259,-0.0
 2087549,0.01294920,-0.18933966,-0.16327493,0.08544042,0.01075332,0.002
 87871,-0.00154992,0.63553039,0.00005667,-0.00017633,-0.00010558,-0.000
 05422,0.00001756,-0.00003672,0.00038168,-0.00026424,-0.00026680,0.0000
 1999,-0.00016521,-0.00003430,-0.00205057,0.00083149,0.00073639,0.00013
 849,-0.00016100,-0.00026877,0.00031624,0.00017869,0.00013719,0.0001134
 2,0.00011340,0.00012766,-0.00439653,-0.08594083,0.03993474,-0.10759420
 ,0.04660456,-0.01429282,-0.05562109,-0.20773221,0.07084442,-0.00603587
 ,-0.05833185,0.03182446,-0.01096667,0.61523905,-0.00002591,0.00005686,
 0.00002838,0.00003155,0.00000662,0.00002770,-0.00018101,0.00010341,0.0
 0011022,-0.00003565,0.00005837,0.00000932,0.00096011,-0.00037369,-0.00
 037186,-0.00004247,0.00005273,0.00011448,-0.00011535,-0.00006746,-0.00
 006915,-0.00005168,-0.00004660,-0.00004473,0.00228692,0.04071172,-0.02
 314714,0.05559819,-0.01818679,0.01395621,0.03246348,0.07554003,-0.1072
 3334,0.00275819,0.03136844,-0.00941519,-0.01673780,-0.22841603,0.26139
 943,-0.00003072,-0.00007067,-0.00004511,-0.00009665,-0.00001764,-0.000
 04560,0.00016426,-0.00003180,-0.00012934,-0.00027476,-0.00030782,-0.00
 001863,-0.00055205,-0.00072961,0.00126098,0.00007419,0.00025433,-0.000
 12141,0.00004387,0.00001806,-0.00008873,0.00001558,0.00006451,0.000062
 39,-0.05687367,-0.11174681,0.05730063,-0.07987970,0.04401864,-0.018299
 61,0.09921995,0.03726092,-0.02229060,-0.00114019,-0.00437255,0.0024069
 5,-0.15258741,0.04327023,-0.01764997,0.68815783,-0.00002545,0.00001591
 ,0.00002454,0.00005518,0.00000859,0.00003193,-0.00030795,0.00041167,-0
 .00013527,0.00033931,0.00003194,0.00011423,-0.00182391,-0.00094808,0.0
 0268710,-0.00013485,0.00005229,0.00008216,-0.00023421,-0.00018167,-0.0
 0004122,-0.00003633,-0.00001615,-0.00004111,-0.02129657,0.04808912,-0.
 01833955,0.04360430,-0.03099713,0.01192838,-0.05835524,-0.07870853,0.0
 4376397,-0.00142427,0.00036526,0.00261849,0.15608390,-0.26504890,0.087
 89319,-0.05203925,0.56395677,0.00000779,0.00000491,0.00000014,0.000018
 73,-0.00001373,-0.00001794,0.00007915,0.00014812,0.00010118,0.00082319
 ,-0.00035316,-0.00020450,0.00124691,0.00308164,0.00362854,-0.00036086,
 0.00027458,0.00014092,-0.00005447,0.00006924,-0.00004644,0.00002083,-0
 .00000026,-0.00003000,0.01330866,-0.01506145,0.01436320,-0.01788081,0.
 01173364,-0.00804460,0.02441205,0.03955866,-0.01490247,0.00097876,0.00
 280390,0.00410970,-0.07306763,0.09301929,-0.11406850,0.00074052,-0.199
 06863,0.25248722,-0.00000685,0.00006309,0.00005301,0.00013032,0.000122
 41,0.00005730,-0.00130079,0.00097578,-0.00089017,-0.00026781,0.0009901
 7,0.00142374,-0.04275590,-0.02427980,0.01226182,-0.00115302,-0.0001226
 5,0.00080044,-0.00044843,-0.00046910,-0.00040009,-0.00000538,-0.000023
 50,-0.00009741,-0.15920861,-0.05024586,0.03011343,0.09193748,-0.054086
 46,0.02338190,-0.09096373,-0.03763335,0.02208832,-0.00006015,0.0020516
 9,-0.00101322,-0.03721195,0.12250160,-0.05796685,-0.35031736,-0.037794
 03,0.03142876,0.69788070,-0.00000307,-0.00003670,-0.00001335,0.0000297
 9,-0.00000614,0.00001970,-0.00035591,0.00028012,0.00001746,0.00148576,
 0.00067989,0.00050434,-0.01868558,-0.00087617,0.00344658,0.00049163,-0
 .00027872,-0.00003170,0.00025149,-0.00024805,0.00008810,-0.00009255,0.
 00000148,0.00003115,-0.14990133,-0.23104459,0.08528845,0.03136590,-0.0
 7182158,0.03850686,-0.03646201,-0.02098954,0.00976940,0.00063858,-0.00
 036440,0.00006717,0.03489651,0.02752412,-0.01084344,0.07333908,-0.0922
 8410,0.00590923,0.01971835,0.54061658,0.00001942,0.00001473,-0.0000022
 5,-0.00001045,-0.00000068,-0.00002907,-0.00002257,-0.00005748,-0.00011
 227,-0.00012738,0.00016996,0.00024335,0.00903815,0.00441577,0.00335352
 ,0.00030407,-0.00045862,-0.00031852,0.00018288,0.00014895,0.00004215,-
 0.00003360,-0.00000351,-0.00000332,0.08016822,0.08098617,-0.11517726,-
 0.01916777,0.04242513,-0.01101359,0.02173727,0.01001948,-0.01006184,-0
 .00024468,-0.00012656,-0.00010572,-0.01517891,-0.01455564,0.01664952,-
 0.02242896,0.01066024,-0.07778767,-0.03598640,-0.19330351,0.25059144,-
 0.20707570,0.01223455,0.00842613,-0.01228537,0.00832070,0.00571821,0.0
 0177096,0.00158771,0.00108143,0.00066719,0.00088507,0.00060809,-0.0001
 9699,-0.00106476,-0.00075570,-0.00055355,-0.00010119,-0.00008378,0.001
 74001,-0.00315986,-0.00219653,-0.03740839,-0.01288546,-0.00925986,0.00
 009449,0.00004424,0.00005083,-0.00003089,-0.00003141,0.00005156,0.0000
 0432,0.00012055,-0.00007850,0.00005998,-0.00005330,0.00002364,0.000100
 72,-0.00007035,0.00003493,-0.00000462,0.00005475,-0.00001197,0.0000369
 1,0.00005104,-0.00005108,0.25317486,0.01640551,-0.03311566,0.00352495,
 0.01751137,-0.00438109,-0.00624791,0.00106828,-0.00192774,-0.00221675,
 -0.00003198,0.00026437,-0.00015799,0.00011407,0.00012233,0.00010100,0.
 00005255,0.00043438,0.00027860,-0.00266693,0.00103161,-0.00514336,-0.0
 2656539,-0.00151680,-0.00193322,0.00000729,-0.00003177,0.00012967,0.00
 001112,0.00000944,-0.00001343,-0.00000648,-0.00003930,0.00001098,-0.00
 000578,0.00001329,-0.00000129,-0.00001520,0.00002625,-0.00000698,-0.00
 000437,-0.00001056,-0.00000204,-0.00002018,0.00000535,0.00000634,-0.00
 586775,0.03912012,0.01141145,0.00351152,-0.03575577,0.01225170,-0.0063
 3361,-0.00027470,0.00075645,-0.00212047,-0.00042637,-0.00002998,-0.000
 18231,0.00038496,0.00005090,0.00010124,0.00005665,0.00002853,0.0002644
 2,0.00023507,-0.00188960,-0.00514449,0.00462580,-0.01897629,-0.0019040
 8,-0.00031111,0.00002547,0.00012510,-0.00011462,-0.00003395,0.00001203
 ,-0.00000689,0.00000202,-0.00001947,0.00001019,-0.00000589,0.00001624,
 -0.00000528,-0.00001152,0.00001110,-0.00000343,0.00000183,0.00000734,-
 0.00000190,0.00001605,0.00000271,0.00000610,-0.00360522,0.01168334,0.0
 3158104,-0.00003353,0.00013651,0.00003761,0.00002730,0.00003374,-0.000
 01002,-0.00019190,0.00012473,0.00012687,-0.00010949,-0.00003145,-0.000
 13113,0.00041899,0.00104033,-0.00057094,-0.00003899,0.00012652,0.00002
 963,-0.00010687,-0.00006366,-0.00012379,-0.00009745,-0.00007939,-0.000
 05642,0.00799035,0.00613421,-0.00293251,-0.08937975,-0.07118884,0.0367
 0852,-0.03564516,-0.02184603,0.01258767,-0.00208076,-0.00044894,0.0002
 4513,-0.00247977,0.00008096,0.00027505,-0.00031602,0.00050842,-0.00023
 565,0.00002287,0.00180588,-0.00070968,0.00003987,-0.00000909,-0.000009
 37,0.12213429,-0.00005398,0.00025599,0.00012413,0.00004262,0.00003385,
 -0.00000529,-0.00041727,0.00023135,0.00038036,0.00022616,0.00007310,0.
 00008213,0.00177216,-0.00218708,-0.00067196,0.00001726,0.00018959,0.00
 026629,-0.00025968,-0.00027253,-0.00019417,-0.00012822,-0.00018789,-0.
 00010354,-0.00590310,-0.03493979,0.02089192,-0.07187548,-0.13362742,0.
 04681243,-0.01072736,0.00374072,0.00266044,0.00094851,-0.00095029,-0.0
 0044572,0.00101545,0.00016480,0.00214523,-0.00075744,0.00083840,-0.000
 41953,0.00244057,0.00013446,0.00214359,0.00003536,-0.00002269,-0.00002
 518,0.08418732,0.16725194,0.00003357,-0.00018334,-0.00011182,-0.000029
 03,0.00000678,0.00004637,0.00012150,-0.00015553,-0.00015773,-0.0003317
 6,0.00010147,0.00000276,-0.00101746,0.00013152,-0.00151684,0.00029159,
 -0.00016082,-0.00008977,0.00008370,0.00001856,0.00010327,0.00012693,0.
 00013279,0.00010115,0.00298563,0.02029841,-0.00280633,0.03695439,0.046
 88164,-0.06824999,0.00725190,0.00313697,0.00620095,-0.00045072,-0.0004
 1326,-0.00155024,-0.00018642,0.00222502,0.00364877,0.00038906,-0.00045
 683,0.00013957,-0.00094945,0.00212524,0.00377917,-0.00001934,0.0000093
 6,0.00000958,-0.04544416,-0.07340727,0.06164492,0.00008479,-0.00010157
 ,-0.00006852,-0.00000628,0.00002595,0.00001237,0.00030312,-0.00023525,
 -0.00023474,-0.00011398,0.00006437,0.00008750,-0.00121831,0.00036574,0
 .00027476,0.00000205,-0.00025431,-0.00019283,0.00024392,0.00021245,0.0
 0016181,0.00008118,0.00004709,0.00005895,0.00118900,-0.00032687,-0.000
 12061,-0.00075831,-0.00019314,0.00037424,-0.02984793,-0.01501163,0.009
 11904,-0.00082980,0.00022591,-0.00018885,-0.21111407,0.01153938,0.0021
 9322,-0.02573981,0.01703545,-0.00682077,-0.00032282,0.00062905,-0.0000
 5776,-0.00011302,0.00001926,0.00001274,-0.00024929,-0.00023785,0.00010
 215,0.26793078,-0.00000462,-0.00000427,-0.00000621,0.00000030,0.000002
 15,0.00001075,-0.00004417,-0.00000044,0.00003005,-0.00002847,0.0000322
 3,-0.00000619,0.00010922,-0.00021245,-0.00034053,0.00001341,-0.0000043
 6,0.00001122,-0.00002011,-0.00000294,-0.00000907,0.00000820,0.00000491
 ,-0.00000317,-0.00010122,0.00004918,0.00005530,-0.00104552,-0.00085852
 ,0.00272431,-0.02589704,-0.00136577,0.00579307,-0.00131096,-0.00177874
 ,0.00008240,0.01194675,-0.03871170,-0.00340027,0.02956928,-0.00788993,
 0.00620301,0.00126642,-0.00082353,0.00295248,0.00000709,-0.00000330,-0
 .00000013,-0.00028703,0.00005728,-0.00022488,-0.01486250,0.05235957,0.
 00000012,0.00000467,0.00000515,-0.00000356,-0.00000016,-0.00000394,-0.
 00000547,-0.00001993,0.00000321,-0.00009802,0.00002398,0.00000767,-0.0
 0004969,-0.00029948,-0.00062021,0.00005482,-0.00002950,-0.00002662,0.0
 0000803,-0.00001069,0.00001589,0.00000207,-0.00000356,0.00000273,0.000
 05221,0.00010612,0.00004143,0.00071932,0.00267957,0.00330254,0.0145109
 5,0.00532508,0.00471317,0.00059166,0.00001903,-0.00176432,0.00190635,-
 0.00339826,-0.04302668,-0.01293152,0.00676189,0.00481302,-0.00039164,0
 .00295437,0.00385593,0.00000071,-0.00000089,-0.00000224,0.00014047,-0.
 00021766,-0.00031764,-0.00404355,-0.01310047,0.03093961,0.00002561,0.0
 0002036,0.00001204,0.00001314,0.00000885,-0.00000504,0.00005873,-0.000
 06798,-0.00006155,-0.00011191,-0.00001015,0.00001771,-0.00030267,-0.00
 016457,0.00022807,-0.00002753,-0.00009724,-0.00009699,0.00010775,0.000
 05750,0.00005646,-0.00001511,-0.00002493,-0.00000752,-0.00288539,0.000
 03873,0.00037488,0.00019663,0.00053839,-0.00029214,-0.00041668,0.00058
 398,0.00000088,0.00013034,0.00057963,-0.00030689,0.00767129,0.00780579
 ,-0.00386149,-0.08800365,-0.07164362,0.03726405,-0.03634020,-0.0224774
 5,0.01311462,-0.00002947,0.00000454,0.00000016,-0.00015055,-0.00022137
 ,0.00007212,0.00063030,0.00038883,-0.00031162,0.12042511,0.00002112,0.
 00002271,0.00001268,-0.00001563,-0.00001020,-0.00000641,0.00018401,-0.
 00016936,-0.00002703,-0.00010988,-0.00004068,-0.00004106,-0.00011184,0
 .00025841,-0.00005474,-0.00007156,-0.00016738,-0.00006021,0.00017378,0
 .00018521,0.00006207,0.00002255,-0.00004200,-0.00001646,0.00007988,0.0
 0060432,0.00216569,-0.00005378,0.00073086,-0.00042919,0.00164766,-0.00
 092247,0.00310639,-0.00023592,-0.00023690,-0.00005225,-0.00561626,-0.0
 3479596,0.02118711,-0.07204912,-0.13471656,0.04727484,-0.00878360,0.00
 224809,0.00311293,-0.00006295,0.00000328,-0.00000279,-0.00021069,-0.00
 042971,-0.00014155,0.00081231,-0.00081447,-0.00058158,0.08444579,0.167
 88539,-0.00001209,-0.00000962,-0.00000106,0.00000331,0.00000196,0.0000
 0313,-0.00008264,0.00006237,0.00001957,-0.00000368,0.00002529,0.000013
 79,0.00011991,-0.00030904,-0.00036597,0.00004595,0.00008059,0.00003007
 ,-0.00009717,-0.00008808,-0.00002729,0.00000245,0.00001978,0.00000532,
 0.00026126,0.00220979,0.00401935,-0.00005039,-0.00043982,0.00012971,-0
 .00047053,0.00315306,0.00397982,0.00009619,-0.00009449,-0.00030576,0.0
 0282614,0.02048682,-0.00248047,0.03721818,0.04728513,-0.07067400,0.006
 60496,0.00384650,0.00558959,0.00002995,-0.00000467,-0.00000039,0.00007
 718,-0.00012681,-0.00064850,-0.00051702,-0.00056572,-0.00162494,-0.046
 03700,-0.07439947,0.06358625,-0.00002122,-0.00001823,0.00000614,0.0000
 3704,0.00003114,0.00006913,-0.00018938,0.00002184,0.00003205,0.0000337
 1,0.00005674,0.00008095,0.00019390,-0.00140700,0.00016731,-0.00064812,
 -0.00021735,0.00074121,-0.00010367,-0.00009251,0.00006692,0.00002031,-
 0.00002034,-0.00003520,0.00640926,-0.01258208,0.00644026,-0.00054395,-
 0.00154884,0.00096186,-0.00066258,0.00014198,-0.00002130,0.00020964,-0
 .00039286,0.00015583,-0.00272945,0.00056972,0.00006528,-0.03185972,0.0
 2743205,-0.01189673,-0.06964746,0.06327285,-0.03054520,0.00000834,-0.0
 0000108,0.00000434,0.00024583,-0.00010292,0.00001550,-0.00015089,0.000
 29314,-0.00015182,-0.00097417,-0.00006583,-0.00001470,0.10037156,0.000
 06811,-0.00017956,-0.00012528,-0.00006781,-0.00001422,-0.00004091,0.00
 038511,-0.00029426,-0.00003863,-0.00001549,0.00003811,-0.00000481,-0.0
 0188894,-0.00062517,-0.00001238,-0.00018565,-0.00013354,0.00024834,0.0
 0005262,0.00029114,-0.00005787,0.00017012,0.00016422,0.00014961,0.0001
 6066,-0.03378772,0.02027443,-0.00213669,0.00064589,0.00216364,0.001421
 72,-0.00030070,0.00027632,-0.00044309,0.00058557,-0.00068425,-0.000232
 30,0.00062658,0.00222078,0.01432886,-0.00296495,0.00483624,0.06333159,
 -0.15271730,0.05144851,-0.00004523,0.00001904,-0.00000265,-0.00001271,
 -0.00035408,0.00007634,0.00024641,-0.00003450,-0.00021303,0.00023465,0
 .00040737,-0.00113227,-0.07537108,0.18862849,-0.00004587,0.00011850,0.
 00009346,0.00002589,-0.00000405,0.00003290,-0.00023689,0.00012345,0.00
 007377,-0.00036119,-0.00010408,-0.00006298,0.00093234,-0.00030037,-0.0
 0164821,0.00090765,0.00025779,-0.00034480,-0.00005505,-0.00021338,-0.0
 0006053,-0.00010735,-0.00009257,-0.00006587,-0.00009754,0.02117873,-0.
 00297562,0.00122893,0.00206028,0.00364724,-0.00059651,0.00037984,0.000
 20280,0.00017020,-0.00066912,-0.00046903,0.00052413,0.00203187,0.00391
 754,-0.00532849,0.00422237,0.00599627,-0.03053778,0.05161368,-0.069499
 23,0.00003674,-0.00001613,-0.00000730,-0.00000509,0.00011054,-0.000227
 62,-0.00015246,-0.00020685,-0.00031536,-0.00016025,-0.00110796,-0.0012
 4705,0.03385842,-0.07938182,0.06296020\\-0.00000072,-0.00001782,-0.000
 00369,0.00000448,-0.00001963,0.00000356,0.00000174,-0.00001152,0.00000
 078,0.00000306,-0.00000794,0.00000324,-0.00000032,-0.00000185,-0.00000
 071,-0.00000558,-0.00000007,-0.00000804,-0.00000282,-0.00000815,-0.000
 00528,-0.00000414,-0.00001176,-0.00000772,0.,0.00000332,0.00000048,0.0
 0000387,0.00000831,0.00000683,0.00000410,0.00001316,0.00000789,0.00000
 774,0.00001794,0.00001384,0.00000071,0.00001325,0.00000300,-0.00000309
 ,0.00000821,-0.00000322,-0.00000343,0.00000324,-0.00000451,-0.00000098
 ,-0.00002156,-0.00000464,0.00000659,0.00000833,0.00001075,0.00000100,0
 .00001714,0.00000399,-0.00000579,0.00000812,-0.00000716,-0.00000642,-0
 .00000073,-0.00000939\\\@


 IN SO FAR AS QUANTUM MECHANICS IS CORRECT, CHEMICAL 
 QUESTIONS ARE PROBLEMS IN APPLIED MATHEMATICS.

                    -- EYRING, WALTER, & KIMBALL, 1944
 Job cpu time:       0 days  0 hours  1 minutes 50.1 seconds.
 Elapsed time:       0 days  0 hours  0 minutes 11.8 seconds.
 File lengths (MBytes):  RWF=    144 Int=      0 D2E=      0 Chk=      9 Scr=      1
 Normal termination of Gaussian 16 at Wed Mar  6 14:00:11 2019.
