 Entering Gaussian System, Link 0=g16
 Initial command:
 /opt/apps/chemistry/Gaussian/g16/l1.exe "/tmp/Gau-188271.inp" -scrdir="/tmp/"
 Entering Link 1 = /opt/apps/chemistry/Gaussian/g16/l1.exe PID=    188275.
  
 Copyright (c) 1988,1990,1992,1993,1995,1998,2003,2009,2016,
            Gaussian, Inc.  All Rights Reserved.
  
 This is part of the Gaussian(R) 16 program.  It is based on
 the Gaussian(R) 09 system (copyright 2009, Gaussian, Inc.),
 the Gaussian(R) 03 system (copyright 2003, Gaussian, Inc.),
 the Gaussian(R) 98 system (copyright 1998, Gaussian, Inc.),
 the Gaussian(R) 94 system (copyright 1995, Gaussian, Inc.),
 the Gaussian 92(TM) system (copyright 1992, Gaussian, Inc.),
 the Gaussian 90(TM) system (copyright 1990, Gaussian, Inc.),
 the Gaussian 88(TM) system (copyright 1988, Gaussian, Inc.),
 the Gaussian 86(TM) system (copyright 1986, Carnegie Mellon
 University), and the Gaussian 82(TM) system (copyright 1983,
 Carnegie Mellon University). Gaussian is a federally registered
 trademark of Gaussian, Inc.
  
 This software contains proprietary and confidential information,
 including trade secrets, belonging to Gaussian, Inc.
  
 This software is provided under written license and may be
 used, copied, transmitted, or stored only in accord with that
 written license.
  
 The following legend is applicable only to US Government
 contracts under FAR:
  
                    RESTRICTED RIGHTS LEGEND
  
 Use, reproduction and disclosure by the US Government is
 subject to restrictions as set forth in subparagraphs (a)
 and (c) of the Commercial Computer Software - Restricted
 Rights clause in FAR 52.227-19.
  
 Gaussian, Inc.
 340 Quinnipiac St., Bldg. 40, Wallingford CT 06492
  
  
 ---------------------------------------------------------------
 Warning -- This program may not be used in any manner that
 competes with the business of Gaussian, Inc. or will provide
 assistance to any competitor of Gaussian, Inc.  The licensee
 of this program is prohibited from giving any competitor of
 Gaussian, Inc. access to this program.  By using this program,
 the user acknowledges that Gaussian, Inc. is engaged in the
 business of creating and licensing software in the field of
 computational chemistry and represents and warrants to the
 licensee that it is not a competitor of Gaussian, Inc. and that
 it will not use this program in any manner prohibited above.
 ---------------------------------------------------------------
  

 Cite this work as:
 Gaussian 16, Revision A.03,
 M. J. Frisch, G. W. Trucks, H. B. Schlegel, G. E. Scuseria, 
 M. A. Robb, J. R. Cheeseman, G. Scalmani, V. Barone, 
 G. A. Petersson, H. Nakatsuji, X. Li, M. Caricato, A. V. Marenich, 
 J. Bloino, B. G. Janesko, R. Gomperts, B. Mennucci, H. P. Hratchian, 
 J. V. Ortiz, A. F. Izmaylov, J. L. Sonnenberg, D. Williams-Young, 
 F. Ding, F. Lipparini, F. Egidi, J. Goings, B. Peng, A. Petrone, 
 T. Henderson, D. Ranasinghe, V. G. Zakrzewski, J. Gao, N. Rega, 
 G. Zheng, W. Liang, M. Hada, M. Ehara, K. Toyota, R. Fukuda, 
 J. Hasegawa, M. Ishida, T. Nakajima, Y. Honda, O. Kitao, H. Nakai, 
 T. Vreven, K. Throssell, J. A. Montgomery, Jr., J. E. Peralta, 
 F. Ogliaro, M. J. Bearpark, J. J. Heyd, E. N. Brothers, K. N. Kudin, 
 V. N. Staroverov, T. A. Keith, R. Kobayashi, J. Normand, 
 K. Raghavachari, A. P. Rendell, J. C. Burant, S. S. Iyengar, 
 J. Tomasi, M. Cossi, J. M. Millam, M. Klene, C. Adamo, R. Cammi, 
 J. W. Ochterski, R. L. Martin, K. Morokuma, O. Farkas, 
 J. B. Foresman, and D. J. Fox, Gaussian, Inc., Wallingford CT, 2016.
 
 ******************************************
 Gaussian 16:  ES64L-G16RevA.03 25-Dec-2016
                22-Feb-2019 
 ******************************************
 %mem=80GB
 %nprocshared=20
 Will use up to   20 processors via shared memory.
 %Chk=/users/psyche/volatile/gaussian/chk/PM7/dyes/D15_A16_pi9_An6.chk
 ----------------------------------------------------------------------
 # PM7 Opt=(cartesian, Maxcycle=150) Freq=(NoRaman) nosymm # Geom=Check
 point Guess=Read # SCRF=(SMD,Solvent=Acetonitrile) SCF=(MaxCycle=500,F
 ullDiagonalization) # Integral=(Grid=UltraFineGrid) CPHF=(MaxInv=20000
 )
 ----------------------------------------------------------------------
 1/6=150,10=7,18=10,26=6,29=2,38=1/1,3;
 2/12=2,15=1,29=2,40=1/2;
 3/5=2,14=-4,25=1,41=4200000,70=32201,71=1,72=2,75=-5,116=-2/1,2,3;
 4/5=1,35=1/1;
 5/5=2,7=500,16=1,35=1,38=6,53=2/2;
 6/7=2,8=2,9=2,10=2,28=1/1;
 7/7=1,29=1,30=1/1,2,3,16;
 1/6=150,10=7,18=10,26=6/3(2);
 2/15=1,29=1/2;
 99/12=1/99;
 2/15=1,29=1/2;
 3/5=2,14=-2,25=1,41=4200000,70=32205,71=1,72=2,75=-5,135=20/1,2,3;
 4/5=5,16=3,35=1/1;
 5/5=2,7=500,16=1,35=1,38=5,53=2/2;
 7/7=1,30=1/1,2,3,16;
 1/6=150,18=10,26=6/3(-5);
 2/15=1,29=1/2;
 6/7=2,8=2,9=2,10=2,19=2,28=1/1;
 99/9=1,12=1/99;
 -----------------
 Optimize geometry
 -----------------
 Structure from the checkpoint file:  "/users/psyche/volatile/gaussian/chk/PM7/dyes/D15_A16_pi9_An6.chk"
 Charge =  0 Multiplicity = 1
 No Z-Matrix found in chk file; cartesian coordinates used.
  C                                               -10.396736520520     -5.159166101883      0.072378741356
  C                                               -10.964758389001     -4.141818310067     -0.734406463584
  C                                               -10.295755983215     -2.963538531251     -0.940011221051
  C                                                -9.021832754470     -2.747850846972     -0.344333216400
  C                                                -8.310805466933     -1.539797341640     -0.551684536592
  C                                                -7.080333727088     -1.349747898615      0.046197131585
  C                                                -6.514785600344     -2.366609866183      0.873618397539
  C                                                -7.190118439042     -3.539027506287      1.069218659645
  C                                                -8.458805090494     -3.760173183589      0.464247497536
  C                                                -9.171919786411     -4.973157569065      0.659540851230
  N                                                -6.364036666826     -0.149540871588     -0.182037432493
  C                                                -7.048828346220      1.092130775089     -0.166963533890
  C                                                -8.159930278724      1.293047385356      0.625194722213
  C                                                -8.844841296323      2.534125988919      0.584097790489
  C                                                -9.998039246899      2.764842220321      1.384000357862
  C                                               -10.641991994110      3.974025533622      1.337103219873
  C                                               -10.168157773727      5.007286142653      0.491289782937
  C                                                -9.059374236440      4.807521376731     -0.290289568344
  C                                                -8.373540428056      3.564218597746     -0.259543703267
  C                                                -7.220084266931      3.332813304090     -1.060990924808
  C                                                -6.569936242019      2.131558756134     -1.022611737029
  C                                                -4.946883891781     -0.158004624990     -0.146458900216
  C                                                -4.250254065241     -1.175353323926     -0.818093382652
  C                                                -2.862513491291     -1.175259419476     -0.812588635657
  C                                                -2.156654908681     -0.165190325654     -0.149438386588
  C                                                -2.856554549031      0.845875714595      0.517763526095
  C                                                -4.244062821060      0.852932012568      0.527311620137
  C                                                -0.696142214831     -0.174703127190     -0.147852136865
  C                                                 0.027854304521      1.034708351684     -0.408056568589
  N                                                -0.340653985108      2.280981299103     -0.707713214019
  O                                                 0.782818364111      3.021568489865     -0.868415991392
  N                                                 1.898166980102      2.273979437806     -0.675395160514
  C                                                 1.512454303657      1.030799721464     -0.386306319284
  C                                                 2.218085400709     -0.183688648172     -0.106304612264
  C                                                 1.471443880859     -1.307780704185      0.113426710253
  C                                                 0.036771244665     -1.301147478811      0.094869720718
  C                                                 3.658957410720     -0.193467225998     -0.070599486085
  C                                                 4.498245318475     -1.046592320989     -0.734994205850
  C                                                 5.863094840502     -0.767936480010     -0.453105500798
  S                                                 7.381005121181     -1.432236043267     -0.951816280465
  C                                                 8.268972796566     -0.274365735621      0.046081682921
  C                                                 7.428423641730      0.570957815187      0.716627394409
  C                                                 6.063060984311      0.295719323293      0.430957601451
  S                                                 4.547577282524      0.965149396965      0.926939195642
  C                                                 9.714643051942     -0.311325068894      0.116265339654
  C                                                10.330855029158     -0.470049037833      1.364013027236
  C                                                11.717113780199     -0.521682563855      1.454447672263
  C                                                12.488188677131     -0.401198931207      0.297943108923
  C                                                11.883540325358     -0.232879385956     -0.946676728394
  C                                                10.495533315131     -0.189772464736     -1.038052663114
  C                                                13.960385641800     -0.484876252473      0.425067292880
  O                                                14.535569165050     -1.426629931152      0.931505248585
  N                                                14.758593498737      0.511722085877     -0.188471080716
  O                                                14.106264772531      1.735422314962     -0.312377171302
  H                                               -10.950211860783     -6.087796233285      0.216643800817
  H                                               -11.943193695784     -4.315073765888     -1.186895564035
  H                                               -10.725774526920     -2.174936028405     -1.560279795170
  H                                                -8.751213480803     -0.773544636599     -1.191218088528
  H                                                -5.549260302937     -2.193536112831      1.353918521202
  H                                                -6.766903739604     -4.324964670882      1.701632538486
  H                                                -8.726115030953     -5.750075222992      1.283663179265
  H                                                -8.527350851323      0.513499684491      1.293984703333
  H                                               -10.356849475913      1.963328595198      2.032442037747
  H                                               -11.527493171449      4.159091761017      1.948237997084
  H                                               -10.699647623952      5.959549358021      0.474367014379
  H                                                -8.686859215928      5.597447495403     -0.945420714913
  H                                                -6.866028872368      4.136386317037     -1.713439932477
  H                                                -5.690799989086      1.947966739379     -1.644951884149
  H                                                -4.793110850402     -1.959518052311     -1.347942023566
  H                                                -2.319794734395     -1.966671495467     -1.338272385502
  H                                                -2.310832277105      1.632799311209      1.045875198706
  H                                                -4.779122827307      1.638745320347      1.063141102675
  H                                                 1.964245311654     -2.267364921805      0.322372388282
  H                                                -0.465829764199     -2.257046313433      0.296448849976
  H                                                 4.175976455283     -1.839605244136     -1.403350629146
  H                                                 7.748751801186      1.362075193985      1.387618876973
  H                                                 9.721360397723     -0.556621647488      2.267029601934
  H                                                12.200096148549     -0.653266565625      2.426689695300
  H                                                12.492007910761     -0.140184557289     -1.850953413035
  H                                                10.026448152862     -0.050865898883     -2.014753532420
  H                                                15.624834864940      0.772330890017      0.273715955278
  H                                                13.759752755804      1.699939930715     -1.256445121591
 Recover connectivity data from disk.

 GradGradGradGradGradGradGradGradGradGradGradGradGradGradGradGradGradGrad
 Berny optimization.
 Initialization pass.
 No Z-matrix variables, so optimization will use Cartesian coordinates.
 Trust Radius=3.00D-01 FncErr=5.00D-06 GrdErr=5.00D-06 EigMax=2.50D+02 EigMin=1.00D-04
 Number of steps in this run=    150 maximum allowed number of steps=    492.
 GradGradGradGradGradGradGradGradGradGradGradGradGradGradGradGradGradGrad

 Symmetry turned off by external request.
 Stoichiometry    C45H28N4O3S2
 Framework group  C1[X(C45H28N4O3S2)]
 Deg. of freedom   240
 Full point group                 C1      NOp   1
                          Input orientation:                          
 ---------------------------------------------------------------------
 Center     Atomic      Atomic             Coordinates (Angstroms)
 Number     Number       Type             X           Y           Z
 ---------------------------------------------------------------------
      1          6           0      -10.396737   -5.159166    0.072379
      2          6           0      -10.964758   -4.141818   -0.734406
      3          6           0      -10.295756   -2.963539   -0.940011
      4          6           0       -9.021833   -2.747851   -0.344333
      5          6           0       -8.310805   -1.539797   -0.551685
      6          6           0       -7.080334   -1.349748    0.046197
      7          6           0       -6.514786   -2.366610    0.873618
      8          6           0       -7.190118   -3.539028    1.069219
      9          6           0       -8.458805   -3.760173    0.464247
     10          6           0       -9.171920   -4.973158    0.659541
     11          7           0       -6.364037   -0.149541   -0.182037
     12          6           0       -7.048828    1.092131   -0.166964
     13          6           0       -8.159930    1.293047    0.625195
     14          6           0       -8.844841    2.534126    0.584098
     15          6           0       -9.998039    2.764842    1.384000
     16          6           0      -10.641992    3.974026    1.337103
     17          6           0      -10.168158    5.007286    0.491290
     18          6           0       -9.059374    4.807521   -0.290290
     19          6           0       -8.373540    3.564219   -0.259544
     20          6           0       -7.220084    3.332813   -1.060991
     21          6           0       -6.569936    2.131559   -1.022612
     22          6           0       -4.946884   -0.158005   -0.146459
     23          6           0       -4.250254   -1.175353   -0.818093
     24          6           0       -2.862513   -1.175259   -0.812589
     25          6           0       -2.156655   -0.165190   -0.149438
     26          6           0       -2.856555    0.845876    0.517764
     27          6           0       -4.244063    0.852932    0.527312
     28          6           0       -0.696142   -0.174703   -0.147852
     29          6           0        0.027854    1.034708   -0.408057
     30          7           0       -0.340654    2.280981   -0.707713
     31          8           0        0.782818    3.021568   -0.868416
     32          7           0        1.898167    2.273979   -0.675395
     33          6           0        1.512454    1.030800   -0.386306
     34          6           0        2.218085   -0.183689   -0.106305
     35          6           0        1.471444   -1.307781    0.113427
     36          6           0        0.036771   -1.301147    0.094870
     37          6           0        3.658957   -0.193467   -0.070599
     38          6           0        4.498245   -1.046592   -0.734994
     39          6           0        5.863095   -0.767936   -0.453106
     40         16           0        7.381005   -1.432236   -0.951816
     41          6           0        8.268973   -0.274366    0.046082
     42          6           0        7.428424    0.570958    0.716627
     43          6           0        6.063061    0.295719    0.430958
     44         16           0        4.547577    0.965149    0.926939
     45          6           0        9.714643   -0.311325    0.116265
     46          6           0       10.330855   -0.470049    1.364013
     47          6           0       11.717114   -0.521683    1.454448
     48          6           0       12.488189   -0.401199    0.297943
     49          6           0       11.883540   -0.232879   -0.946677
     50          6           0       10.495533   -0.189772   -1.038053
     51          6           0       13.960386   -0.484876    0.425067
     52          8           0       14.535569   -1.426630    0.931505
     53          7           0       14.758593    0.511722   -0.188471
     54          8           0       14.106265    1.735422   -0.312377
     55          1           0      -10.950212   -6.087796    0.216644
     56          1           0      -11.943194   -4.315074   -1.186896
     57          1           0      -10.725775   -2.174936   -1.560280
     58          1           0       -8.751213   -0.773545   -1.191218
     59          1           0       -5.549260   -2.193536    1.353919
     60          1           0       -6.766904   -4.324965    1.701633
     61          1           0       -8.726115   -5.750075    1.283663
     62          1           0       -8.527351    0.513500    1.293985
     63          1           0      -10.356849    1.963329    2.032442
     64          1           0      -11.527493    4.159092    1.948238
     65          1           0      -10.699648    5.959549    0.474367
     66          1           0       -8.686859    5.597447   -0.945421
     67          1           0       -6.866029    4.136386   -1.713440
     68          1           0       -5.690800    1.947967   -1.644952
     69          1           0       -4.793111   -1.959518   -1.347942
     70          1           0       -2.319795   -1.966671   -1.338272
     71          1           0       -2.310832    1.632799    1.045875
     72          1           0       -4.779123    1.638745    1.063141
     73          1           0        1.964245   -2.267365    0.322372
     74          1           0       -0.465830   -2.257046    0.296449
     75          1           0        4.175976   -1.839605   -1.403351
     76          1           0        7.748752    1.362075    1.387619
     77          1           0        9.721360   -0.556622    2.267030
     78          1           0       12.200096   -0.653267    2.426690
     79          1           0       12.492008   -0.140185   -1.850953
     80          1           0       10.026448   -0.050866   -2.014754
     81          1           0       15.624835    0.772331    0.273716
     82          1           0       13.759753    1.699940   -1.256445
 ---------------------------------------------------------------------
 Rotational constants (GHZ):           0.1241369           0.0103187           0.0096778
 Standard basis: VSTO-6G (5D, 7F)
   254 basis functions,  1536 primitive gaussians,   256 cartesian basis functions
   129 alpha electrons      129 beta electrons
       nuclear repulsion energy      2932.4870361359 Hartrees.
 Integral buffers will be    131072 words long.
 Regular integral format.
 Two-electron integral symmetry is turned off.
 Nuclear repulsion after empirical dispersion term =     2932.4450604676 Hartrees.
 ------------------------------------------------------------------------------
 Polarizable Continuum Model (PCM)
 =================================
 Model                : PCM.
 Atomic radii         : SMD-Coulomb.
 Polarization charges : Total charges.
 Charge compensation  : None.
 Solution method      : On-the-fly selection.
 Cavity type          : VdW (van der Waals Surface) (Alpha=1.000).
 Cavity algorithm     : GePol (No added spheres)
                        Default sphere list used, NSphG=   82.
                        Lebedev-Laikov grids with approx.  5.0 points / Ang**2.
                        Smoothing algorithm: York/Karplus (Gamma=1.0000).
                        Polarization charges: spherical gaussians, with
                                              point-specific exponents (IZeta= 3).
                        Self-potential: point-specific (ISelfS= 7).
                        Self-field    : sphere-specific E.n sum rule (ISelfD= 2).
 1st derivatives      : Analytical E(r).r(x)/FMM algorithm (CHGder, D1EAlg=3).
                        Cavity 1st derivative terms included.
 Solvent              : Acetonitrile, Eps=  35.688000 Eps(inf)=   1.806874
 ------------------------------------------------------------------------------
 ------------------------------------------------------------------------------
 Atomic radii for non-electrostatic terms: SMD-CDS.
 ------------------------------------------------------------------------------
 Nuclear repulsion after PCM non-electrostatic terms =     2932.4290449242 Hartrees.
 Do NDO integrals.
 One-electron integrals computed using PRISM.
 NBasis=   254 RedAO= F EigKep=  0.00D+00  NBF=   254
 NBsUse=   254 1.00D-04 EigRej=  0.00D+00 NBFU=   254
 Initial guess from the checkpoint file:  "/users/psyche/volatile/gaussian/chk/PM7/dyes/D15_A16_pi9_An6.chk"
 B after Tr=     0.000000    0.000000    0.000000
         Rot=    1.000000    0.000000    0.000000    0.000000 Ang=   0.00 deg.
 Keep J ints in memory in canonical form, NReq=3291320.
 Overlap will be assumed to be unity.
 Requested convergence on RMS density matrix=1.00D-08 within 500 cycles.
 Requested convergence on MAX density matrix=1.00D-06.
 Requested convergence on             energy=1.00D-06.
 No special actions if energy rises.
 Inv3:  Mode=1 IEnd=   126399243.
 Iteration    1 A*A^-1 deviation from unit magnitude is 3.33D-15 for    601.
 Iteration    1 A*A^-1 deviation from orthogonality  is 2.41D-15 for   2796    379.
 Iteration    1 A^-1*A deviation from unit magnitude is 3.33D-15 for    601.
 Iteration    1 A^-1*A deviation from orthogonality  is 7.22D-15 for   3685   3646.
 Error on total polarization charges = -0.00071
 SCF Done:  E(RPM7) =  0.265398900309     A.U. after    1 cycles
            NFock=  1  Conv=0.28D-09     -V/T= 1.0006
 SMD-CDS (non-electrostatic) energy       (kcal/mol) =     -10.05
 (included in total energy above)

 **********************************************************************

            Population analysis using the SCF density.

 **********************************************************************

 Alpha  occ. eigenvalues --   -1.39952  -1.37345  -1.32269  -1.23531  -1.19067
 Alpha  occ. eigenvalues --   -1.15717  -1.15257  -1.15057  -1.14892  -1.13704
 Alpha  occ. eigenvalues --   -1.13176  -1.10172  -1.08898  -1.08583  -1.07619
 Alpha  occ. eigenvalues --   -1.04067  -1.02779  -1.00366  -0.99444  -0.99417
 Alpha  occ. eigenvalues --   -0.97528  -0.97176  -0.95584  -0.95053  -0.94817
 Alpha  occ. eigenvalues --   -0.93095  -0.91511  -0.91129  -0.89400  -0.88311
 Alpha  occ. eigenvalues --   -0.87215  -0.83789  -0.83621  -0.82368  -0.80325
 Alpha  occ. eigenvalues --   -0.79499  -0.78807  -0.78552  -0.77664  -0.77607
 Alpha  occ. eigenvalues --   -0.76950  -0.76167  -0.74815  -0.73828  -0.70549
 Alpha  occ. eigenvalues --   -0.69888  -0.68382  -0.68046  -0.67191  -0.66457
 Alpha  occ. eigenvalues --   -0.65496  -0.64984  -0.64821  -0.64698  -0.64255
 Alpha  occ. eigenvalues --   -0.63170  -0.63125  -0.62751  -0.62004  -0.61122
 Alpha  occ. eigenvalues --   -0.59795  -0.59460  -0.59007  -0.58923  -0.58212
 Alpha  occ. eigenvalues --   -0.56682  -0.56399  -0.55994  -0.55975  -0.55782
 Alpha  occ. eigenvalues --   -0.55339  -0.55052  -0.54667  -0.54392  -0.53971
 Alpha  occ. eigenvalues --   -0.53891  -0.53841  -0.53393  -0.53337  -0.53157
 Alpha  occ. eigenvalues --   -0.52745  -0.52529  -0.52339  -0.52167  -0.52065
 Alpha  occ. eigenvalues --   -0.51583  -0.51365  -0.50550  -0.50268  -0.49781
 Alpha  occ. eigenvalues --   -0.49416  -0.49011  -0.48484  -0.48016  -0.47619
 Alpha  occ. eigenvalues --   -0.47138  -0.46734  -0.46453  -0.46001  -0.45673
 Alpha  occ. eigenvalues --   -0.45613  -0.45409  -0.45022  -0.44772  -0.44687
 Alpha  occ. eigenvalues --   -0.44275  -0.43932  -0.43385  -0.43318  -0.42907
 Alpha  occ. eigenvalues --   -0.42039  -0.41793  -0.41090  -0.41001  -0.40260
 Alpha  occ. eigenvalues --   -0.39746  -0.38309  -0.37904  -0.37841  -0.37796
 Alpha  occ. eigenvalues --   -0.37740  -0.37291  -0.36160  -0.35653  -0.34598
 Alpha  occ. eigenvalues --   -0.34278  -0.33429  -0.32045  -0.30382
 Alpha virt. eigenvalues --   -0.07099  -0.04979  -0.03576  -0.03182  -0.02717
 Alpha virt. eigenvalues --   -0.02287  -0.02150  -0.02090  -0.01734  -0.01136
 Alpha virt. eigenvalues --   -0.00895  -0.00732  -0.00482  -0.00356   0.00191
 Alpha virt. eigenvalues --    0.00326   0.00553   0.00855   0.01354   0.01663
 Alpha virt. eigenvalues --    0.01763   0.01782   0.02077   0.02110   0.02485
 Alpha virt. eigenvalues --    0.03072   0.03719   0.04449   0.04555   0.04783
 Alpha virt. eigenvalues --    0.04919   0.05165   0.05280   0.05566   0.06051
 Alpha virt. eigenvalues --    0.06933   0.07681   0.07909   0.08258   0.09129
 Alpha virt. eigenvalues --    0.09182   0.09377   0.09481   0.10397   0.11397
 Alpha virt. eigenvalues --    0.11882   0.12286   0.12605   0.12817   0.12919
 Alpha virt. eigenvalues --    0.13515   0.13555   0.13628   0.13718   0.13859
 Alpha virt. eigenvalues --    0.14356   0.14457   0.14634   0.14831   0.15271
 Alpha virt. eigenvalues --    0.15407   0.15847   0.15903   0.15984   0.16100
 Alpha virt. eigenvalues --    0.16203   0.16302   0.16623   0.16650   0.16735
 Alpha virt. eigenvalues --    0.16852   0.16920   0.17002   0.17013   0.17053
 Alpha virt. eigenvalues --    0.17169   0.17335   0.17394   0.17497   0.17586
 Alpha virt. eigenvalues --    0.17748   0.17843   0.17861   0.17975   0.18276
 Alpha virt. eigenvalues --    0.18330   0.18539   0.18643   0.18706   0.18992
 Alpha virt. eigenvalues --    0.19054   0.19080   0.19887   0.19890   0.19999
 Alpha virt. eigenvalues --    0.20450   0.20496   0.20648   0.20926   0.20957
 Alpha virt. eigenvalues --    0.21015   0.21141   0.21187   0.21273   0.21411
 Alpha virt. eigenvalues --    0.21431   0.21432   0.21535   0.21654   0.21824
 Alpha virt. eigenvalues --    0.21963   0.21981   0.22052   0.22065   0.22073
 Alpha virt. eigenvalues --    0.22153   0.22188   0.22252   0.22326   0.22334
 Alpha virt. eigenvalues --    0.22368   0.22484   0.22488   0.22615   0.22622
          Condensed to atoms (all electrons):
 Mulliken charges:
               1
     1  C   -0.179094
     2  C   -0.134883
     3  C   -0.184671
     4  C    0.026117
     5  C   -0.275317
     6  C    0.218167
     7  C   -0.232625
     8  C   -0.105274
     9  C   -0.073503
    10  C   -0.142707
    11  N   -0.434068
    12  C    0.213789
    13  C   -0.275664
    14  C    0.023688
    15  C   -0.183137
    16  C   -0.135872
    17  C   -0.176869
    18  C   -0.145330
    19  C   -0.070174
    20  C   -0.110058
    21  C   -0.218987
    22  C    0.220197
    23  C   -0.237257
    24  C   -0.083996
    25  C   -0.087266
    26  C   -0.089010
    27  C   -0.236715
    28  C    0.001989
    29  C    0.058884
    30  N   -0.316188
    31  O    0.300744
    32  N   -0.316241
    33  C    0.068800
    34  C   -0.023704
    35  C   -0.086480
    36  C   -0.132146
    37  C   -0.164087
    38  C   -0.125114
    39  C   -0.195051
    40  S    0.259639
    41  C   -0.157953
    42  C   -0.149095
    43  C   -0.179595
    44  S    0.280533
    45  C    0.014494
    46  C   -0.155220
    47  C   -0.108709
    48  C   -0.140464
    49  C   -0.109253
    50  C   -0.158809
    51  C    0.568834
    52  O   -0.527889
    53  N   -0.385498
    54  O   -0.332595
    55  H    0.166453
    56  H    0.166181
    57  H    0.174036
    58  H    0.186707
    59  H    0.186198
    60  H    0.174619
    61  H    0.167596
    62  H    0.185873
    63  H    0.173806
    64  H    0.165529
    65  H    0.166359
    66  H    0.168101
    67  H    0.175852
    68  H    0.188612
    69  H    0.183370
    70  H    0.176025
    71  H    0.173890
    72  H    0.184936
    73  H    0.195554
    74  H    0.197072
    75  H    0.195563
    76  H    0.195573
    77  H    0.181233
    78  H    0.180176
    79  H    0.178989
    80  H    0.180342
    81  H    0.323884
    82  H    0.328163
 Sum of Mulliken charges =  -0.00000
 Mulliken charges with hydrogens summed into heavy atoms:
               1
     1  C   -0.012642
     2  C    0.031298
     3  C   -0.010635
     4  C    0.026117
     5  C   -0.088610
     6  C    0.218167
     7  C   -0.046427
     8  C    0.069346
     9  C   -0.073503
    10  C    0.024889
    11  N   -0.434068
    12  C    0.213789
    13  C   -0.089791
    14  C    0.023688
    15  C   -0.009331
    16  C    0.029657
    17  C   -0.010510
    18  C    0.022771
    19  C   -0.070174
    20  C    0.065794
    21  C   -0.030375
    22  C    0.220197
    23  C   -0.053887
    24  C    0.092029
    25  C   -0.087266
    26  C    0.084880
    27  C   -0.051779
    28  C    0.001989
    29  C    0.058884
    30  N   -0.316188
    31  O    0.300744
    32  N   -0.316241
    33  C    0.068800
    34  C   -0.023704
    35  C    0.109074
    36  C    0.064927
    37  C   -0.164087
    38  C    0.070449
    39  C   -0.195051
    40  S    0.259639
    41  C   -0.157953
    42  C    0.046478
    43  C   -0.179595
    44  S    0.280533
    45  C    0.014494
    46  C    0.026013
    47  C    0.071467
    48  C   -0.140464
    49  C    0.069736
    50  C    0.021533
    51  C    0.568834
    52  O   -0.527889
    53  N   -0.061614
    54  O   -0.004432
 Charge=             -0.0000 electrons
 Dipole moment (field-independent basis, Debye):
    X=             -2.6921    Y=             -1.9778    Z=              0.0129  Tot=              3.3406
 N-N= 2.932429044924D+03 E-N=-5.229505980897D+03  KE=-4.637710498164D+02
 D1PCM: PCM CHGder 1st derivatives, ID1Alg=3 FixD1E=F DoIter=F DoCFld=F I1PDM=0.
 Calling FoFJK, ICntrl=      2127 FMM=F ISym2X=0 I1Cent= 0 IOpClX= 0 NMat=1 NMatS=1 NMatT=0.
 -------------------------------------------------------------------
 Center     Atomic                   Forces (Hartrees/Bohr)
 Number     Number              X              Y              Z
 -------------------------------------------------------------------
      1        6           0.000001228    0.000001585   -0.000000525
      2        6           0.000001996   -0.000000016   -0.000000486
      3        6          -0.000000828   -0.000002707    0.000000613
      4        6          -0.000000394    0.000001706   -0.000002405
      5        6          -0.000001299    0.000000477    0.000000256
      6        6          -0.000000508   -0.000001500   -0.000000614
      7        6          -0.000000611    0.000001890   -0.000002659
      8        6          -0.000001449   -0.000000485    0.000000188
      9        6           0.000002334   -0.000001483    0.000000177
     10        6          -0.000002957   -0.000000428   -0.000001672
     11        7          -0.000000737   -0.000007967    0.000001276
     12        6          -0.000004485    0.000008109    0.000000049
     13        6           0.000001566   -0.000002621   -0.000000494
     14        6          -0.000001611    0.000000020    0.000001910
     15        6          -0.000000626    0.000001331   -0.000001381
     16        6           0.000001452   -0.000000354   -0.000000841
     17        6           0.000000641   -0.000002559    0.000000973
     18        6          -0.000002652   -0.000000407    0.000000943
     19        6           0.000001224    0.000000213    0.000000065
     20        6          -0.000000151   -0.000000064   -0.000000322
     21        6          -0.000001035   -0.000001879   -0.000000904
     22        6           0.000002208    0.000002215   -0.000000089
     23        6           0.000002340   -0.000000949   -0.000000655
     24        6          -0.000001698   -0.000002017   -0.000001743
     25        6          -0.000001905    0.000001370   -0.000000371
     26        6           0.000002102    0.000000584    0.000001239
     27        6          -0.000001371   -0.000000565    0.000000258
     28        6           0.000005259   -0.000003657    0.000001795
     29        6          -0.000001693   -0.000000491   -0.000001795
     30        7           0.000002435    0.000003306   -0.000000230
     31        8           0.000000425   -0.000003995    0.000002939
     32        7          -0.000003555    0.000003429   -0.000001412
     33        6           0.000002053    0.000000791    0.000000016
     34        6          -0.000002438   -0.000006326    0.000000096
     35        6           0.000001906    0.000005081   -0.000000442
     36        6          -0.000002589    0.000004043   -0.000000619
     37        6           0.000000214    0.000007594    0.000006219
     38        6           0.000001913   -0.000002113   -0.000003613
     39        6          -0.000007169   -0.000004836   -0.000003295
     40       16           0.000000471    0.000001875    0.000000582
     41        6           0.000000780   -0.000000203   -0.000000456
     42        6          -0.000000210    0.000002170    0.000000069
     43        6           0.000005835    0.000004759    0.000004712
     44       16          -0.000000651   -0.000003771   -0.000003759
     45        6           0.000001408    0.000000517    0.000002264
     46        6           0.000000103    0.000000518   -0.000001796
     47        6           0.000001105    0.000000806    0.000000576
     48        6          -0.000003174   -0.000000161    0.000002102
     49        6           0.000001537    0.000000778   -0.000000348
     50        6          -0.000001990    0.000001056    0.000000235
     51        6           0.000000500    0.000007572   -0.000000839
     52        8           0.000002165   -0.000000725   -0.000001972
     53        7          -0.000003845   -0.000007870    0.000005590
     54        8           0.000001681   -0.000000471    0.000002145
     55        1           0.000000256   -0.000001447   -0.000000764
     56        1          -0.000000625    0.000000363   -0.000000890
     57        1           0.000000079    0.000000211   -0.000000864
     58        1           0.000000377   -0.000000557   -0.000001456
     59        1           0.000001718   -0.000000761    0.000001345
     60        1           0.000000641   -0.000000762   -0.000000849
     61        1           0.000000801   -0.000000923   -0.000000962
     62        1           0.000000284   -0.000000518    0.000001342
     63        1           0.000000082   -0.000000903    0.000000993
     64        1          -0.000000977   -0.000001180    0.000000641
     65        1          -0.000000401    0.000000563   -0.000000012
     66        1           0.000000441    0.000000254    0.000000494
     67        1           0.000000109    0.000000330    0.000000946
     68        1           0.000001462    0.000000953   -0.000000958
     69        1          -0.000000478   -0.000000427   -0.000000815
     70        1           0.000001260   -0.000000098   -0.000000434
     71        1           0.000000794    0.000000185    0.000000490
     72        1          -0.000000264    0.000000424    0.000000990
     73        1           0.000000454   -0.000001897   -0.000000000
     74        1          -0.000000445   -0.000002033    0.000000308
     75        1           0.000000919    0.000001124    0.000001343
     76        1          -0.000001307   -0.000001438    0.000000091
     77        1          -0.000000926   -0.000000484    0.000000534
     78        1           0.000000027    0.000000041    0.000000130
     79        1           0.000000662    0.000000620   -0.000000571
     80        1           0.000000435    0.000000376   -0.000000176
     81        1          -0.000001070    0.000004536   -0.000002254
     82        1           0.000000444    0.000000275   -0.000000195
 -------------------------------------------------------------------
 Cartesian Forces:  Max     0.000008109 RMS     0.000002157

 GradGradGradGradGradGradGradGradGradGradGradGradGradGradGradGradGradGrad
 Berny optimization.
 Search for a local minimum.
 Step number   1 out of a maximum of  150
 All quantities printed in internal units (Hartrees-Bohrs-Radians)
 Second derivative matrix not updated -- first step.
 ITU=  0
     Eigenvalues ---    0.00002   0.00004   0.00007   0.00013   0.00018
     Eigenvalues ---    0.00024   0.00034   0.00039   0.00042   0.00067
     Eigenvalues ---    0.00079   0.00113   0.00139   0.00186   0.00221
     Eigenvalues ---    0.00257   0.00287   0.00313   0.00363   0.00433
     Eigenvalues ---    0.00525   0.00612   0.00631   0.00652   0.00825
     Eigenvalues ---    0.00935   0.01097   0.01106   0.01211   0.01250
     Eigenvalues ---    0.01387   0.01400   0.01439   0.01476   0.01514
     Eigenvalues ---    0.01666   0.01682   0.01763   0.01778   0.01929
     Eigenvalues ---    0.02041   0.02150   0.02266   0.02509   0.02540
     Eigenvalues ---    0.02636   0.02686   0.02689   0.02910   0.02952
     Eigenvalues ---    0.03043   0.03289   0.03744   0.04240   0.04582
     Eigenvalues ---    0.04602   0.04707   0.05110   0.05892   0.06009
     Eigenvalues ---    0.06129   0.06208   0.06289   0.06531   0.06677
     Eigenvalues ---    0.06741   0.06785   0.06798   0.06950   0.06952
     Eigenvalues ---    0.07050   0.07092   0.07121   0.07160   0.07286
     Eigenvalues ---    0.07346   0.07437   0.07659   0.07804   0.07816
     Eigenvalues ---    0.07900   0.08374   0.08446   0.08981   0.09306
     Eigenvalues ---    0.09491   0.09533   0.09775   0.09805   0.10077
     Eigenvalues ---    0.10280   0.10629   0.10896   0.10985   0.11046
     Eigenvalues ---    0.11129   0.11144   0.11271   0.11628   0.12205
     Eigenvalues ---    0.12313   0.13041   0.13210   0.13348   0.13431
     Eigenvalues ---    0.13571   0.13631   0.13667   0.13677   0.14013
     Eigenvalues ---    0.14138   0.14443   0.14587   0.14708   0.17031
     Eigenvalues ---    0.18019   0.18398   0.19587   0.20053   0.20258
     Eigenvalues ---    0.20900   0.22279   0.25222   0.26071   0.26225
     Eigenvalues ---    0.26633   0.26723   0.26804   0.27127   0.27397
     Eigenvalues ---    0.27859   0.27945   0.28290   0.28591   0.28681
     Eigenvalues ---    0.29825   0.30435   0.30482   0.30621   0.31357
     Eigenvalues ---    0.31653   0.33328   0.33792   0.34039   0.34263
     Eigenvalues ---    0.34535   0.35302   0.35464   0.36978   0.37283
     Eigenvalues ---    0.38167   0.39096   0.41185   0.41308   0.41960
     Eigenvalues ---    0.42615   0.44017   0.45060   0.45611   0.46553
     Eigenvalues ---    0.46613   0.48116   0.48167   0.49190   0.50399
     Eigenvalues ---    0.52477   0.53432   0.53947   0.56883   0.59853
     Eigenvalues ---    0.60807   0.64517   0.66718   0.67019   0.68098
     Eigenvalues ---    0.69889   0.70168   0.70692   0.74359   0.75129
     Eigenvalues ---    0.75139   0.75187   0.79437   0.81227   0.81929
     Eigenvalues ---    0.86051   0.89206   0.92323   0.98495   0.99119
     Eigenvalues ---    1.01549   1.01733   1.01988   1.07386   1.10356
     Eigenvalues ---    1.11353   1.12109   1.14627   1.15137   1.16909
     Eigenvalues ---    1.17779   1.20282   1.21792   1.22307   1.22814
     Eigenvalues ---    1.24363   1.25209   1.26400   1.27854   1.29628
     Eigenvalues ---    1.30346   1.32276   1.34626   1.34919   1.35681
     Eigenvalues ---    1.42379   1.43051   1.43885   1.45012   1.46399
     Eigenvalues ---    1.47768   1.48784   1.50101   1.52319   1.53497
     Eigenvalues ---    1.54577   1.55722   1.57426   1.58473   1.60410
     Eigenvalues ---    1.61584   1.63891   1.65116   1.65778   1.66176
     Eigenvalues ---    1.68951   1.73142   1.74323   1.81065   2.23359
 RFO step:  Lambda= 0.00000000D+00 EMin= 2.03349636D-05
 Linear search not attempted -- first point.
 B after Tr=     0.000001    0.000009   -0.000013
         Rot=    1.000000    0.000001    0.000000    0.000001 Ang=   0.00 deg.
 Variable       Old X    -DE/DX   Delta X   Delta X   Delta X     New X
                                 (Linear)    (Quad)   (Total)
    X1      -19.64698   0.00000   0.00000   0.00042   0.00041 -19.64658
    Y1       -9.74941   0.00000   0.00000  -0.00019  -0.00016  -9.74957
    Z1        0.13678  -0.00000   0.00000   0.00035   0.00034   0.13711
    X2      -20.72039   0.00000   0.00000   0.00028   0.00027 -20.72012
    Y2       -7.82690  -0.00000   0.00000  -0.00024  -0.00021  -7.82711
    Z2       -1.38783  -0.00000   0.00000   0.00038   0.00037  -1.38746
    X3      -19.45616  -0.00000   0.00000   0.00018   0.00017 -19.45599
    Y3       -5.60028  -0.00000   0.00000  -0.00020  -0.00017  -5.60045
    Z3       -1.77636   0.00000   0.00000   0.00031   0.00030  -1.77607
    X4      -17.04879  -0.00000   0.00000   0.00020   0.00020 -17.04859
    Y4       -5.19269   0.00000   0.00000  -0.00009  -0.00006  -5.19275
    Z4       -0.65070  -0.00000   0.00000   0.00021   0.00019  -0.65050
    X5      -15.70515  -0.00000   0.00000   0.00011   0.00010 -15.70504
    Y5       -2.90980   0.00000   0.00000  -0.00004  -0.00002  -2.90981
    Z5       -1.04253   0.00000   0.00000   0.00012   0.00011  -1.04242
    X6      -13.37989  -0.00000   0.00000   0.00013   0.00013 -13.37977
    Y6       -2.55065  -0.00000   0.00000   0.00006   0.00009  -2.55057
    Z6        0.08730  -0.00000   0.00000   0.00005   0.00004   0.08734
    X7      -12.31116  -0.00000   0.00000   0.00026   0.00025 -12.31091
    Y7       -4.47224   0.00000   0.00000   0.00013   0.00015  -4.47209
    Z7        1.65090  -0.00000   0.00000   0.00004   0.00003   1.65093
    X8      -13.58735  -0.00000   0.00000   0.00036   0.00035 -13.58700
    Y8       -6.68779  -0.00000   0.00000   0.00008   0.00010  -6.68769
    Z8        2.02053   0.00000   0.00000   0.00010   0.00010   2.02063
    X9      -15.98482   0.00000   0.00000   0.00034   0.00033 -15.98449
    Y9       -7.10570  -0.00000   0.00000  -0.00003  -0.00000  -7.10570
    Z9        0.87730   0.00000   0.00000   0.00019   0.00018   0.87748
   X10      -17.33242  -0.00000   0.00000   0.00044   0.00043 -17.33198
   Y10       -9.39791  -0.00000   0.00000  -0.00009  -0.00006  -9.39796
   Z10        1.24635  -0.00000   0.00000   0.00025   0.00024   1.24659
   X11      -12.02629  -0.00000   0.00000   0.00002   0.00002 -12.02626
   Y11       -0.28259  -0.00001   0.00000   0.00012   0.00014  -0.28245
   Z11       -0.34400   0.00000   0.00000  -0.00001  -0.00003  -0.34403
   X12      -13.32036  -0.00000   0.00000  -0.00010  -0.00010 -13.32045
   Y12        2.06383   0.00001   0.00000   0.00007   0.00009   2.06392
   Z12       -0.31552   0.00000   0.00000   0.00001  -0.00000  -0.31552
   X13      -15.42003   0.00000   0.00000   0.00003   0.00003 -15.42001
   Y13        2.44351  -0.00000   0.00000  -0.00001   0.00001   2.44352
   Z13        1.18145  -0.00000   0.00000   0.00021   0.00019   1.18164
   X14      -16.71433  -0.00000   0.00000  -0.00018  -0.00017 -16.71450
   Y14        4.78880   0.00000   0.00000  -0.00013  -0.00010   4.78871
   Z14        1.10378   0.00000   0.00000   0.00019   0.00016   1.10395
   X15      -18.89356  -0.00000   0.00000  -0.00010  -0.00009 -18.89365
   Y15        5.22479   0.00000   0.00000  -0.00023  -0.00019   5.22460
   Z15        2.61538  -0.00000   0.00000   0.00033   0.00031   2.61569
   X16      -20.11045   0.00000   0.00000  -0.00032  -0.00032 -20.11077
   Y16        7.50982  -0.00000   0.00000  -0.00035  -0.00032   7.50950
   Z16        2.52676  -0.00000   0.00000   0.00027   0.00025   2.52701
   X17      -19.21503   0.00000   0.00000  -0.00064  -0.00062 -19.21566
   Y17        9.46240  -0.00000   0.00000  -0.00038  -0.00035   9.46205
   Z17        0.92840   0.00000   0.00000   0.00007   0.00005   0.92845
   X18      -17.11974  -0.00000   0.00000  -0.00071  -0.00070 -17.12044
   Y18        9.08490  -0.00000   0.00000  -0.00027  -0.00025   9.08465
   Z18       -0.54857   0.00000   0.00000  -0.00006  -0.00008  -0.54865
   X19      -15.82370   0.00000   0.00000  -0.00048  -0.00048 -15.82417
   Y19        6.73540   0.00000   0.00000  -0.00015  -0.00012   6.73528
   Z19       -0.49047   0.00000   0.00000  -0.00001  -0.00003  -0.49050
   X20      -13.64398  -0.00000   0.00000  -0.00057  -0.00056 -13.64455
   Y20        6.29810  -0.00000   0.00000  -0.00005  -0.00003   6.29808
   Z20       -2.00498  -0.00000   0.00000  -0.00017  -0.00019  -2.00518
   X21      -12.41538  -0.00000   0.00000  -0.00039  -0.00039 -12.41577
   Y21        4.02806  -0.00000   0.00000   0.00005   0.00007   4.02813
   Z21       -1.93246  -0.00000   0.00000  -0.00017  -0.00019  -1.93265
   X22       -9.34826   0.00000   0.00000   0.00004   0.00004  -9.34822
   Y22       -0.29859   0.00000   0.00000   0.00022   0.00024  -0.29834
   Z22       -0.27677  -0.00000   0.00000  -0.00012  -0.00014  -0.27690
   X23       -8.03182   0.00000   0.00000   0.00005   0.00005  -8.03177
   Y23       -2.22110  -0.00000   0.00000   0.00030   0.00032  -2.22078
   Z23       -1.54597  -0.00000   0.00000  -0.00024  -0.00025  -1.54622
   X24       -5.40937  -0.00000   0.00000   0.00005   0.00005  -5.40932
   Y24       -2.22092  -0.00000   0.00000   0.00036   0.00037  -2.22055
   Z24       -1.53557  -0.00000   0.00000  -0.00030  -0.00031  -1.53588
   X25       -4.07549  -0.00000   0.00000   0.00004   0.00004  -4.07545
   Y25       -0.31216   0.00000   0.00000   0.00034   0.00035  -0.31182
   Z25       -0.28240  -0.00000   0.00000  -0.00025  -0.00026  -0.28266
   X26       -5.39811   0.00000   0.00000   0.00003   0.00004  -5.39807
   Y26        1.59847   0.00000   0.00000   0.00027   0.00028   1.59875
   Z26        0.97843   0.00000   0.00000  -0.00014  -0.00016   0.97827
   X27       -8.02012  -0.00000   0.00000   0.00003   0.00003  -8.02009
   Y27        1.61181  -0.00000   0.00000   0.00021   0.00023   1.61203
   Z27        0.99647   0.00000   0.00000  -0.00008  -0.00009   0.99638
   X28       -1.31552   0.00001   0.00000   0.00004   0.00004  -1.31548
   Y28       -0.33014  -0.00000   0.00000   0.00036   0.00037  -0.32978
   Z28       -0.27940   0.00000   0.00000  -0.00027  -0.00029  -0.27969
   X29        0.05264  -0.00000   0.00000   0.00002   0.00003   0.05266
   Y29        1.95532  -0.00000   0.00000   0.00036   0.00037   1.95568
   Z29       -0.77112  -0.00000   0.00000  -0.00031  -0.00033  -0.77145
   X30       -0.64374   0.00000   0.00000   0.00001   0.00002  -0.64372
   Y30        4.31043   0.00000   0.00000   0.00036   0.00037   4.31080
   Z30       -1.33738  -0.00000   0.00000  -0.00031  -0.00032  -1.33771
   X31        1.47931   0.00000   0.00000   0.00000   0.00001   1.47932
   Y31        5.70994  -0.00000   0.00000   0.00036   0.00037   5.71030
   Z31       -1.64107   0.00000   0.00000  -0.00032  -0.00034  -1.64141
   X32        3.58702  -0.00000   0.00000   0.00001   0.00002   3.58703
   Y32        4.29720   0.00000   0.00000   0.00037   0.00037   4.29757
   Z32       -1.27631  -0.00000   0.00000  -0.00038  -0.00040  -1.27671
   X33        2.85812   0.00000   0.00000   0.00003   0.00003   2.85816
   Y33        1.94793   0.00000   0.00000   0.00037   0.00038   1.94830
   Z33       -0.73001   0.00000   0.00000  -0.00034  -0.00035  -0.73037
   X34        4.19157  -0.00000   0.00000   0.00003   0.00004   4.19161
   Y34       -0.34712  -0.00001   0.00000   0.00038   0.00038  -0.34674
   Z34       -0.20089   0.00000   0.00000  -0.00032  -0.00033  -0.20122
   X35        2.78063   0.00000   0.00000   0.00005   0.00005   2.78067
   Y35       -2.47135   0.00001   0.00000   0.00038   0.00039  -2.47096
   Z35        0.21435  -0.00000   0.00000  -0.00029  -0.00030   0.21404
   X36        0.06949  -0.00000   0.00000   0.00005   0.00005   0.06953
   Y36       -2.45881   0.00000   0.00000   0.00037   0.00038  -2.45844
   Z36        0.17928  -0.00000   0.00000  -0.00027  -0.00028   0.17900
   X37        6.91443   0.00000   0.00000   0.00003   0.00004   6.91446
   Y37       -0.36560   0.00001   0.00000   0.00038   0.00038  -0.36522
   Z37       -0.13341   0.00001   0.00000  -0.00034  -0.00035  -0.13376
   X38        8.50045   0.00000   0.00000   0.00000   0.00000   8.50046
   Y38       -1.97777  -0.00000   0.00000   0.00038   0.00038  -1.97739
   Z38       -1.38894  -0.00000   0.00000  -0.00039  -0.00040  -1.38934
   X39       11.07964  -0.00001   0.00000   0.00001   0.00001  11.07965
   Y39       -1.45119  -0.00000   0.00000   0.00030   0.00030  -1.45089
   Z39       -0.85625  -0.00000   0.00000  -0.00035  -0.00036  -0.85661
   X40       13.94808   0.00000   0.00000  -0.00001  -0.00001  13.94807
   Y40       -2.70653   0.00000   0.00000   0.00028   0.00027  -2.70627
   Z40       -1.79867   0.00000   0.00000  -0.00036  -0.00037  -1.79904
   X41       15.62609   0.00000   0.00000   0.00003   0.00003  15.62612
   Y41       -0.51848  -0.00000   0.00000   0.00008   0.00007  -0.51841
   Z41        0.08708  -0.00000   0.00000  -0.00016  -0.00017   0.08691
   X42       14.03769  -0.00000   0.00000   0.00005   0.00006  14.03774
   Y42        1.07895   0.00000   0.00000   0.00009   0.00009   1.07904
   Z42        1.35423   0.00000   0.00000  -0.00014  -0.00015   1.35408
   X43       11.45752   0.00001   0.00000   0.00006   0.00006  11.45758
   Y43        0.55883   0.00000   0.00000   0.00024   0.00024   0.55906
   Z43        0.81439   0.00000   0.00000  -0.00027  -0.00028   0.81411
   X44        8.59368  -0.00000   0.00000   0.00007   0.00008   8.59375
   Y44        1.82387  -0.00000   0.00000   0.00032   0.00032   1.82419
   Z44        1.75166  -0.00000   0.00000  -0.00032  -0.00034   1.75133
   X45       18.35801   0.00000   0.00000   0.00001   0.00001  18.35803
   Y45       -0.58832   0.00000   0.00000  -0.00010  -0.00011  -0.58843
   Z45        0.21971   0.00000   0.00000  -0.00001  -0.00002   0.21969
   X46       19.52249   0.00000   0.00000  -0.00014  -0.00014  19.52234
   Y46       -0.88826   0.00000   0.00000  -0.00040  -0.00041  -0.88868
   Z46        2.57761  -0.00000   0.00000   0.00002   0.00001   2.57762
   X47       22.14214   0.00000   0.00000  -0.00016  -0.00016  22.14198
   Y47       -0.98584   0.00000   0.00000  -0.00057  -0.00059  -0.98642
   Z47        2.74851   0.00000   0.00000   0.00016   0.00016   2.74866
   X48       23.59926  -0.00000   0.00000  -0.00003  -0.00003  23.59922
   Y48       -0.75816  -0.00000   0.00000  -0.00044  -0.00046  -0.75862
   Z48        0.56303   0.00000   0.00000   0.00026   0.00025   0.56329
   X49       22.45664   0.00000   0.00000   0.00012   0.00012  22.45676
   Y49       -0.44008   0.00000   0.00000  -0.00014  -0.00015  -0.44023
   Z49       -1.78896  -0.00000   0.00000   0.00023   0.00022  -1.78874
   X50       19.83368  -0.00000   0.00000   0.00014   0.00014  19.83382
   Y50       -0.35862   0.00000   0.00000   0.00004   0.00002  -0.35860
   Z50       -1.96164   0.00000   0.00000   0.00009   0.00008  -1.96156
   X51       26.38131   0.00000   0.00000  -0.00005  -0.00005  26.38125
   Y51       -0.91628   0.00001   0.00000  -0.00061  -0.00063  -0.91691
   Z51        0.80326  -0.00000   0.00000   0.00037   0.00036   0.80362
   X52       27.46824   0.00000   0.00000  -0.00016  -0.00016  27.46808
   Y52       -2.69594  -0.00000   0.00000  -0.00080  -0.00082  -2.69676
   Z52        1.76029  -0.00000   0.00000   0.00015   0.00015   1.76044
   X53       27.88970  -0.00000   0.00000   0.00007   0.00007  27.88977
   Y53        0.96701  -0.00001   0.00000  -0.00060  -0.00062   0.96639
   Z53       -0.35616   0.00001   0.00000   0.00059   0.00058  -0.35558
   X54       26.65698   0.00000   0.00000   0.00019   0.00019  26.65717
   Y54        3.27947  -0.00000   0.00000  -0.00053  -0.00055   3.27892
   Z54       -0.59031   0.00000   0.00000   0.00072   0.00071  -0.58960
   X55      -20.69290   0.00000   0.00000   0.00051   0.00050 -20.69240
   Y55      -11.50427  -0.00000   0.00000  -0.00024  -0.00021 -11.50448
   Z55        0.40940  -0.00000   0.00000   0.00038   0.00038   0.40978
   X56      -22.56937  -0.00000   0.00000   0.00025   0.00025 -22.56912
   Y56       -8.15431   0.00000   0.00000  -0.00031  -0.00028  -8.15459
   Z56       -2.24291  -0.00000   0.00000   0.00046   0.00045  -2.24246
   X57      -20.26878   0.00000   0.00000   0.00007   0.00007 -20.26871
   Y57       -4.11003   0.00000   0.00000  -0.00024  -0.00022  -4.11025
   Z57       -2.94850  -0.00000   0.00000   0.00032   0.00031  -2.94820
   X58      -16.53740   0.00000   0.00000   0.00002   0.00002 -16.53737
   Y58       -1.46179  -0.00000   0.00000  -0.00011  -0.00008  -1.46187
   Z58       -2.25108  -0.00000   0.00000   0.00010   0.00009  -2.25099
   X59      -10.48658   0.00000   0.00000   0.00027   0.00027 -10.48631
   Y59       -4.14518  -0.00000   0.00000   0.00021   0.00023  -4.14495
   Z59        2.55854   0.00000   0.00000  -0.00001  -0.00002   2.55852
   X60      -12.78759   0.00000   0.00000   0.00047   0.00046 -12.78713
   Y60       -8.17300  -0.00000   0.00000   0.00012   0.00014  -8.17286
   Z60        3.21562  -0.00000   0.00000   0.00008   0.00007   3.21569
   X61      -16.48997   0.00000   0.00000   0.00056   0.00055 -16.48942
   Y61      -10.86607  -0.00000   0.00000  -0.00006  -0.00003 -10.86609
   Z61        2.42577  -0.00000   0.00000   0.00020   0.00020   2.42597
   X62      -16.11436   0.00000   0.00000   0.00028   0.00028 -16.11408
   Y62        0.97037  -0.00000   0.00000   0.00001   0.00004   0.97041
   Z62        2.44528   0.00000   0.00000   0.00038   0.00036   2.44564
   X63      -19.57161   0.00000   0.00000   0.00015   0.00016 -19.57145
   Y63        3.71015  -0.00000   0.00000  -0.00021  -0.00017   3.70998
   Z63        3.84076   0.00000   0.00000   0.00050   0.00048   3.84124
   X64      -21.78380  -0.00000   0.00000  -0.00028  -0.00027 -21.78407
   Y64        7.85954  -0.00000   0.00000  -0.00045  -0.00042   7.85913
   Z64        3.68164   0.00000   0.00000   0.00037   0.00035   3.68199
   X65      -20.21940  -0.00000   0.00000  -0.00081  -0.00080 -20.22020
   Y65       11.26192   0.00000   0.00000  -0.00047  -0.00044  11.26147
   Z65        0.89642  -0.00000   0.00000   0.00002  -0.00000   0.89642
   X66      -16.41578   0.00000   0.00000  -0.00094  -0.00093 -16.41671
   Y66       10.57764   0.00000   0.00000  -0.00028  -0.00026  10.57739
   Z66       -1.78659   0.00000   0.00000  -0.00020  -0.00023  -1.78681
   X67      -12.97491   0.00000   0.00000  -0.00079  -0.00078 -12.97570
   Y67        7.81664   0.00000   0.00000  -0.00005  -0.00003   7.81661
   Z67       -3.23793   0.00000   0.00000  -0.00029  -0.00032  -3.23825
   X68      -10.75405   0.00000   0.00000  -0.00047  -0.00046 -10.75451
   Y68        3.68112   0.00000   0.00000   0.00013   0.00015   3.68127
   Z68       -3.10851  -0.00000   0.00000  -0.00031  -0.00033  -3.10884
   X69       -9.05767  -0.00000   0.00000   0.00006   0.00005  -9.05761
   Y69       -3.70295  -0.00000   0.00000   0.00032   0.00034  -3.70262
   Z69       -2.54724  -0.00000   0.00000  -0.00028  -0.00029  -2.54753
   X70       -4.38378   0.00000   0.00000   0.00007   0.00007  -4.38371
   Y70       -3.71647  -0.00000   0.00000   0.00042   0.00043  -3.71604
   Z70       -2.52897  -0.00000   0.00000  -0.00038  -0.00039  -2.52936
   X71       -4.36684   0.00000   0.00000   0.00003   0.00004  -4.36680
   Y71        3.08554   0.00000   0.00000   0.00024   0.00025   3.08580
   Z71        1.97642   0.00000   0.00000  -0.00010  -0.00011   1.97630
   X72       -9.03123  -0.00000   0.00000   0.00002   0.00002  -9.03121
   Y72        3.09678   0.00000   0.00000   0.00014   0.00016   3.09694
   Z72        2.00905   0.00000   0.00000   0.00003   0.00001   2.00905
   X73        3.71189   0.00000   0.00000   0.00005   0.00005   3.71194
   Y73       -4.28470  -0.00000   0.00000   0.00038   0.00038  -4.28432
   Z73        0.60920  -0.00000   0.00000  -0.00029  -0.00030   0.60890
   X74       -0.88029  -0.00000   0.00000   0.00006   0.00006  -0.88023
   Y74       -4.26520  -0.00000   0.00000   0.00036   0.00037  -4.26483
   Z74        0.56021   0.00000   0.00000  -0.00024  -0.00025   0.55996
   X75        7.89145   0.00000   0.00000  -0.00002  -0.00002   7.89143
   Y75       -3.47635   0.00000   0.00000   0.00042   0.00042  -3.47593
   Z75       -2.65195   0.00000   0.00000  -0.00042  -0.00043  -2.65237
   X76       14.64302  -0.00000   0.00000   0.00006   0.00007  14.64308
   Y76        2.57395  -0.00000   0.00000  -0.00002  -0.00003   2.57392
   Z76        2.62222   0.00000   0.00000  -0.00002  -0.00003   2.62219
   X77       18.37071  -0.00000   0.00000  -0.00026  -0.00026  18.37045
   Y77       -1.05186  -0.00000   0.00000  -0.00052  -0.00053  -1.05239
   Z77        4.28407   0.00000   0.00000  -0.00006  -0.00007   4.28399
   X78       23.05484   0.00000   0.00000  -0.00027  -0.00027  23.05457
   Y78       -1.23449   0.00000   0.00000  -0.00081  -0.00083  -1.23532
   Z78        4.58578   0.00000   0.00000   0.00019   0.00018   4.58596
   X79       23.60647   0.00000   0.00000   0.00024   0.00024  23.60671
   Y79       -0.26491   0.00000   0.00000  -0.00003  -0.00005  -0.26496
   Z79       -3.49780  -0.00000   0.00000   0.00031   0.00030  -3.49749
   X80       18.94724   0.00000   0.00000   0.00026   0.00026  18.94750
   Y80       -0.09612   0.00000   0.00000   0.00027   0.00026  -0.09587
   Z80       -3.80733  -0.00000   0.00000   0.00006   0.00005  -3.80728
   X81       29.52666  -0.00000   0.00000   0.00006   0.00007  29.52672
   Y81        1.45949   0.00000   0.00000  -0.00069  -0.00071   1.45878
   Z81        0.51725  -0.00000   0.00000   0.00065   0.00064   0.51789
   X82       26.00216   0.00000   0.00000   0.00029   0.00029  26.00246
   Y82        3.21242   0.00000   0.00000  -0.00035  -0.00037   3.21205
   Z82       -2.37434  -0.00000   0.00000   0.00068   0.00066  -2.37367
         Item               Value     Threshold  Converged?
 Maximum Force            0.000008     0.000450     YES
 RMS     Force            0.000002     0.000300     YES
 Maximum Displacement     0.000927     0.001800     YES
 RMS     Displacement     0.000299     0.001200     YES
 Predicted change in Energy=-1.388827D-09
 Optimization completed.
    -- Stationary point found.
 GradGradGradGradGradGradGradGradGradGradGradGradGradGradGradGradGradGrad

 Symmetry turned off by external request.
 Stoichiometry    C45H28N4O3S2
 Framework group  C1[X(C45H28N4O3S2)]
 Deg. of freedom   240
 Full point group                 C1      NOp   1
                          Input orientation:                          
 ---------------------------------------------------------------------
 Center     Atomic      Atomic             Coordinates (Angstroms)
 Number     Number       Type             X           Y           Z
 ---------------------------------------------------------------------
      1          6           0      -10.396737   -5.159166    0.072379
      2          6           0      -10.964758   -4.141818   -0.734406
      3          6           0      -10.295756   -2.963539   -0.940011
      4          6           0       -9.021833   -2.747851   -0.344333
      5          6           0       -8.310805   -1.539797   -0.551685
      6          6           0       -7.080334   -1.349748    0.046197
      7          6           0       -6.514786   -2.366610    0.873618
      8          6           0       -7.190118   -3.539028    1.069219
      9          6           0       -8.458805   -3.760173    0.464247
     10          6           0       -9.171920   -4.973158    0.659541
     11          7           0       -6.364037   -0.149541   -0.182037
     12          6           0       -7.048828    1.092131   -0.166964
     13          6           0       -8.159930    1.293047    0.625195
     14          6           0       -8.844841    2.534126    0.584098
     15          6           0       -9.998039    2.764842    1.384000
     16          6           0      -10.641992    3.974026    1.337103
     17          6           0      -10.168158    5.007286    0.491290
     18          6           0       -9.059374    4.807521   -0.290290
     19          6           0       -8.373540    3.564219   -0.259544
     20          6           0       -7.220084    3.332813   -1.060991
     21          6           0       -6.569936    2.131559   -1.022612
     22          6           0       -4.946884   -0.158005   -0.146459
     23          6           0       -4.250254   -1.175353   -0.818093
     24          6           0       -2.862513   -1.175259   -0.812589
     25          6           0       -2.156655   -0.165190   -0.149438
     26          6           0       -2.856555    0.845876    0.517764
     27          6           0       -4.244063    0.852932    0.527312
     28          6           0       -0.696142   -0.174703   -0.147852
     29          6           0        0.027854    1.034708   -0.408057
     30          7           0       -0.340654    2.280981   -0.707713
     31          8           0        0.782818    3.021568   -0.868416
     32          7           0        1.898167    2.273979   -0.675395
     33          6           0        1.512454    1.030800   -0.386306
     34          6           0        2.218085   -0.183689   -0.106305
     35          6           0        1.471444   -1.307781    0.113427
     36          6           0        0.036771   -1.301147    0.094870
     37          6           0        3.658957   -0.193467   -0.070599
     38          6           0        4.498245   -1.046592   -0.734994
     39          6           0        5.863095   -0.767936   -0.453106
     40         16           0        7.381005   -1.432236   -0.951816
     41          6           0        8.268973   -0.274366    0.046082
     42          6           0        7.428424    0.570958    0.716627
     43          6           0        6.063061    0.295719    0.430958
     44         16           0        4.547577    0.965149    0.926939
     45          6           0        9.714643   -0.311325    0.116265
     46          6           0       10.330855   -0.470049    1.364013
     47          6           0       11.717114   -0.521683    1.454448
     48          6           0       12.488189   -0.401199    0.297943
     49          6           0       11.883540   -0.232879   -0.946677
     50          6           0       10.495533   -0.189772   -1.038053
     51          6           0       13.960386   -0.484876    0.425067
     52          8           0       14.535569   -1.426630    0.931505
     53          7           0       14.758593    0.511722   -0.188471
     54          8           0       14.106265    1.735422   -0.312377
     55          1           0      -10.950212   -6.087796    0.216644
     56          1           0      -11.943194   -4.315074   -1.186896
     57          1           0      -10.725775   -2.174936   -1.560280
     58          1           0       -8.751213   -0.773545   -1.191218
     59          1           0       -5.549260   -2.193536    1.353919
     60          1           0       -6.766904   -4.324965    1.701633
     61          1           0       -8.726115   -5.750075    1.283663
     62          1           0       -8.527351    0.513500    1.293985
     63          1           0      -10.356849    1.963329    2.032442
     64          1           0      -11.527493    4.159092    1.948238
     65          1           0      -10.699648    5.959549    0.474367
     66          1           0       -8.686859    5.597447   -0.945421
     67          1           0       -6.866029    4.136386   -1.713440
     68          1           0       -5.690800    1.947967   -1.644952
     69          1           0       -4.793111   -1.959518   -1.347942
     70          1           0       -2.319795   -1.966671   -1.338272
     71          1           0       -2.310832    1.632799    1.045875
     72          1           0       -4.779123    1.638745    1.063141
     73          1           0        1.964245   -2.267365    0.322372
     74          1           0       -0.465830   -2.257046    0.296449
     75          1           0        4.175976   -1.839605   -1.403351
     76          1           0        7.748752    1.362075    1.387619
     77          1           0        9.721360   -0.556622    2.267030
     78          1           0       12.200096   -0.653267    2.426690
     79          1           0       12.492008   -0.140185   -1.850953
     80          1           0       10.026448   -0.050866   -2.014754
     81          1           0       15.624835    0.772331    0.273716
     82          1           0       13.759753    1.699940   -1.256445
 ---------------------------------------------------------------------
 Rotational constants (GHZ):           0.1241369           0.0103187           0.0096778
 1\1\GINC-NODE015\FOpt\RPM7\ZDO\C45H28N4O3S2\PSYCHE\22-Feb-2019\0\\# PM
 7 Opt=(cartesian, Maxcycle=150) Freq=(NoRaman) nosymm # Geom=Checkpoin
 t Guess=Read # SCRF=(SMD,Solvent=Acetonitrile) SCF=(MaxCycle=500,FullD
 iagonalization) # Integral=(Grid=UltraFineGrid) CPHF=(MaxInv=20000)\\O
 ptimize geometry\\0,1\C,-10.3967365205,-5.1591661019,0.0723787414\C,-1
 0.964758389,-4.1418183101,-0.7344064636\C,-10.2957559832,-2.9635385313
 ,-0.9400112211\C,-9.0218327545,-2.747850847,-0.3443332164\C,-8.3108054
 669,-1.5397973416,-0.5516845366\C,-7.0803337271,-1.3497478986,0.046197
 1316\C,-6.5147856003,-2.3666098662,0.8736183975\C,-7.190118439,-3.5390
 275063,1.0692186596\C,-8.4588050905,-3.7601731836,0.4642474975\C,-9.17
 19197864,-4.9731575691,0.6595408512\N,-6.3640366668,-0.1495408716,-0.1
 820374325\C,-7.0488283462,1.0921307751,-0.1669635339\C,-8.1599302787,1
 .2930473854,0.6251947222\C,-8.8448412963,2.5341259889,0.5840977905\C,-
 9.9980392469,2.7648422203,1.3840003579\C,-10.6419919941,3.9740255336,1
 .3371032199\C,-10.1681577737,5.0072861427,0.4912897829\C,-9.0593742364
 ,4.8075213767,-0.2902895683\C,-8.3735404281,3.5642185977,-0.2595437033
 \C,-7.2200842669,3.3328133041,-1.0609909248\C,-6.569936242,2.131558756
 1,-1.022611737\C,-4.9468838918,-0.158004625,-0.1464589002\C,-4.2502540
 652,-1.1753533239,-0.8180933827\C,-2.8625134913,-1.1752594195,-0.81258
 86357\C,-2.1566549087,-0.1651903257,-0.1494383866\C,-2.856554549,0.845
 8757146,0.5177635261\C,-4.2440628211,0.8529320126,0.5273116201\C,-0.69
 61422148,-0.1747031272,-0.1478521369\C,0.0278543045,1.0347083517,-0.40
 80565686\N,-0.3406539851,2.2809812991,-0.707713214\O,0.7828183641,3.02
 15684899,-0.8684159914\N,1.8981669801,2.2739794378,-0.6753951605\C,1.5
 124543037,1.0307997215,-0.3863063193\C,2.2180854007,-0.1836886482,-0.1
 063046123\C,1.4714438809,-1.3077807042,0.1134267103\C,0.0367712447,-1.
 3011474788,0.0948697207\C,3.6589574107,-0.193467226,-0.0705994861\C,4.
 4982453185,-1.046592321,-0.7349942058\C,5.8630948405,-0.76793648,-0.45
 31055008\S,7.3810051212,-1.4322360433,-0.9518162805\C,8.2689727966,-0.
 2743657356,0.0460816829\C,7.4284236417,0.5709578152,0.7166273944\C,6.0
 630609843,0.2957193233,0.4309576015\S,4.5475772825,0.965149397,0.92693
 91956\C,9.7146430519,-0.3113250689,0.1162653397\C,10.3308550292,-0.470
 0490378,1.3640130272\C,11.7171137802,-0.5216825639,1.4544476723\C,12.4
 881886771,-0.4011989312,0.2979431089\C,11.8835403254,-0.232879386,-0.9
 466767284\C,10.4955333151,-0.1897724647,-1.0380526631\C,13.9603856418,
 -0.4848762525,0.4250672929\O,14.5355691651,-1.4266299312,0.9315052486\
 N,14.7585934987,0.5117220859,-0.1884710807\O,14.1062647725,1.735422315
 ,-0.3123771713\H,-10.9502118608,-6.0877962333,0.2166438008\H,-11.94319
 36958,-4.3150737659,-1.186895564\H,-10.7257745269,-2.1749360284,-1.560
 2797952\H,-8.7512134808,-0.7735446366,-1.1912180885\H,-5.5492603029,-2
 .1935361128,1.3539185212\H,-6.7669037396,-4.3249646709,1.7016325385\H,
 -8.726115031,-5.750075223,1.2836631793\H,-8.5273508513,0.5134996845,1.
 2939847033\H,-10.3568494759,1.9633285952,2.0324420377\H,-11.5274931714
 ,4.159091761,1.9482379971\H,-10.699647624,5.959549358,0.4743670144\H,-
 8.6868592159,5.5974474954,-0.9454207149\H,-6.8660288724,4.136386317,-1
 .7134399325\H,-5.6907999891,1.9479667394,-1.6449518841\H,-4.7931108504
 ,-1.9595180523,-1.3479420236\H,-2.3197947344,-1.9666714955,-1.33827238
 55\H,-2.3108322771,1.6327993112,1.0458751987\H,-4.7791228273,1.6387453
 203,1.0631411027\H,1.9642453117,-2.2673649218,0.3223723883\H,-0.465829
 7642,-2.2570463134,0.29644885\H,4.1759764553,-1.8396052441,-1.40335062
 91\H,7.7487518012,1.362075194,1.387618877\H,9.7213603977,-0.5566216475
 ,2.2670296019\H,12.2000961485,-0.6532665656,2.4266896953\H,12.49200791
 08,-0.1401845573,-1.850953413\H,10.0264481529,-0.0508658989,-2.0147535
 324\H,15.6248348649,0.77233089,0.2737159553\H,13.7597527558,1.69993993
 07,-1.2564451216\\Version=ES64L-G16RevA.03\HF=0.2653989\RMSD=2.809e-10
 \RMSF=2.157e-06\Dipole=-1.0591658,-0.7781241,0.0050949\PG=C01 [X(C45H2
 8N4O3S2)]\\@


 THE TRULY SUCCESSFUL PERFORMANCE OF RESEARCHES IN
 INORGANIC CHEMISTRY IS POSSIBLE ONLY TO ONE WHO IS NOT
 ONLY A THEORETICAL CHEMIST, BUT ALSO AN ACCOMPLISHED
 ANALYST AND, MOREOVER, NOT MERELY A PRACTICALLY TRAINED,
 MECHANICAL WORKER, BUT A THINKING CREATIVE ARTIST.
   --  CLEMENS WINKLER, BER. 33, 1697(1900)
 Job cpu time:       0 days  0 hours  6 minutes 48.4 seconds.
 Elapsed time:       0 days  0 hours  0 minutes 24.2 seconds.
 File lengths (MBytes):  RWF=    742 Int=      0 D2E=      0 Chk=     36 Scr=      1
 Normal termination of Gaussian 16 at Fri Feb 22 20:04:18 2019.
 Link1:  Proceeding to internal job step number  2.
 -------------------------------------------------------------
 #N Geom=AllCheck Guess=TCheck SCRF=Check GenChk RPM7/ZDO Freq
 -------------------------------------------------------------
 1/6=150,10=4,29=7,30=1,38=1,40=1/1,3;
 2/12=2,15=1,40=1/2;
 3/5=2,14=-4,25=1,41=4200000,70=2,71=2,75=-5,116=1,135=40,140=1/1,2,3;
 4/5=101,35=1/1;
 5/5=2,7=500,35=1,38=6,98=1/2;
 8/6=4,10=90,11=11/1;
 11/6=1,8=1,9=11,15=111,16=1,31=1/1,2,10;
 10/6=1,11=20000,31=1/2;
 6/7=2,8=2,9=2,10=2,28=1/1;
 7/8=1,10=1,25=1,30=1/1,2,3,16;
 1/6=150,10=4,30=1/3;
 99//99;
 Structure from the checkpoint file:  "/users/psyche/volatile/gaussian/chk/PM7/dyes/D15_A16_pi9_An6.chk"
 -----------------
 Optimize geometry
 -----------------
 Charge =  0 Multiplicity = 1
 No Z-Matrix found in chk file; cartesian coordinates used.
  C                                               -10.396736520520     -5.159166101883      0.072378741356
  C                                               -10.964758389001     -4.141818310067     -0.734406463584
  C                                               -10.295755983215     -2.963538531251     -0.940011221051
  C                                                -9.021832754470     -2.747850846972     -0.344333216400
  C                                                -8.310805466933     -1.539797341640     -0.551684536592
  C                                                -7.080333727088     -1.349747898615      0.046197131585
  C                                                -6.514785600344     -2.366609866183      0.873618397539
  C                                                -7.190118439042     -3.539027506287      1.069218659645
  C                                                -8.458805090494     -3.760173183589      0.464247497536
  C                                                -9.171919786411     -4.973157569065      0.659540851230
  N                                                -6.364036666826     -0.149540871588     -0.182037432493
  C                                                -7.048828346220      1.092130775089     -0.166963533890
  C                                                -8.159930278724      1.293047385356      0.625194722213
  C                                                -8.844841296323      2.534125988919      0.584097790489
  C                                                -9.998039246899      2.764842220321      1.384000357862
  C                                               -10.641991994110      3.974025533622      1.337103219873
  C                                               -10.168157773727      5.007286142653      0.491289782937
  C                                                -9.059374236440      4.807521376731     -0.290289568344
  C                                                -8.373540428056      3.564218597746     -0.259543703267
  C                                                -7.220084266931      3.332813304090     -1.060990924808
  C                                                -6.569936242019      2.131558756134     -1.022611737029
  C                                                -4.946883891781     -0.158004624990     -0.146458900216
  C                                                -4.250254065241     -1.175353323926     -0.818093382652
  C                                                -2.862513491291     -1.175259419476     -0.812588635657
  C                                                -2.156654908681     -0.165190325654     -0.149438386588
  C                                                -2.856554549031      0.845875714595      0.517763526095
  C                                                -4.244062821060      0.852932012568      0.527311620137
  C                                                -0.696142214831     -0.174703127190     -0.147852136865
  C                                                 0.027854304521      1.034708351684     -0.408056568589
  N                                                -0.340653985108      2.280981299103     -0.707713214019
  O                                                 0.782818364111      3.021568489865     -0.868415991392
  N                                                 1.898166980102      2.273979437806     -0.675395160514
  C                                                 1.512454303657      1.030799721464     -0.386306319284
  C                                                 2.218085400709     -0.183688648172     -0.106304612264
  C                                                 1.471443880859     -1.307780704185      0.113426710253
  C                                                 0.036771244665     -1.301147478811      0.094869720718
  C                                                 3.658957410720     -0.193467225998     -0.070599486085
  C                                                 4.498245318475     -1.046592320989     -0.734994205850
  C                                                 5.863094840502     -0.767936480010     -0.453105500798
  S                                                 7.381005121181     -1.432236043267     -0.951816280465
  C                                                 8.268972796566     -0.274365735621      0.046081682921
  C                                                 7.428423641730      0.570957815187      0.716627394409
  C                                                 6.063060984311      0.295719323293      0.430957601451
  S                                                 4.547577282524      0.965149396965      0.926939195642
  C                                                 9.714643051942     -0.311325068894      0.116265339654
  C                                                10.330855029158     -0.470049037833      1.364013027236
  C                                                11.717113780199     -0.521682563855      1.454447672263
  C                                                12.488188677131     -0.401198931207      0.297943108923
  C                                                11.883540325358     -0.232879385956     -0.946676728394
  C                                                10.495533315131     -0.189772464736     -1.038052663114
  C                                                13.960385641800     -0.484876252473      0.425067292880
  O                                                14.535569165050     -1.426629931152      0.931505248585
  N                                                14.758593498737      0.511722085877     -0.188471080716
  O                                                14.106264772531      1.735422314962     -0.312377171302
  H                                               -10.950211860783     -6.087796233285      0.216643800817
  H                                               -11.943193695784     -4.315073765888     -1.186895564035
  H                                               -10.725774526920     -2.174936028405     -1.560279795170
  H                                                -8.751213480803     -0.773544636599     -1.191218088528
  H                                                -5.549260302937     -2.193536112831      1.353918521202
  H                                                -6.766903739604     -4.324964670882      1.701632538486
  H                                                -8.726115030953     -5.750075222992      1.283663179265
  H                                                -8.527350851323      0.513499684491      1.293984703333
  H                                               -10.356849475913      1.963328595198      2.032442037747
  H                                               -11.527493171449      4.159091761017      1.948237997084
  H                                               -10.699647623952      5.959549358021      0.474367014379
  H                                                -8.686859215928      5.597447495403     -0.945420714913
  H                                                -6.866028872368      4.136386317037     -1.713439932477
  H                                                -5.690799989086      1.947966739379     -1.644951884149
  H                                                -4.793110850402     -1.959518052311     -1.347942023566
  H                                                -2.319794734395     -1.966671495467     -1.338272385502
  H                                                -2.310832277105      1.632799311209      1.045875198706
[...]
 Atom     6 has atomic number  6 and mass  12.00000
 Atom     7 has atomic number  6 and mass  12.00000
 Atom     8 has atomic number  6 and mass  12.00000
 Atom     9 has atomic number  6 and mass  12.00000
 Atom    10 has atomic number  6 and mass  12.00000
 Atom    11 has atomic number  7 and mass  14.00307
 Atom    12 has atomic number  6 and mass  12.00000
 Atom    13 has atomic number  6 and mass  12.00000
 Atom    14 has atomic number  6 and mass  12.00000
 Atom    15 has atomic number  6 and mass  12.00000
 Atom    16 has atomic number  6 and mass  12.00000
 Atom    17 has atomic number  6 and mass  12.00000
 Atom    18 has atomic number  6 and mass  12.00000
 Atom    19 has atomic number  6 and mass  12.00000
 Atom    20 has atomic number  6 and mass  12.00000
 Atom    21 has atomic number  6 and mass  12.00000
 Atom    22 has atomic number  6 and mass  12.00000
 Atom    23 has atomic number  6 and mass  12.00000
 Atom    24 has atomic number  6 and mass  12.00000
 Atom    25 has atomic number  6 and mass  12.00000
 Atom    26 has atomic number  6 and mass  12.00000
 Atom    27 has atomic number  6 and mass  12.00000
 Atom    28 has atomic number  6 and mass  12.00000
 Atom    29 has atomic number  6 and mass  12.00000
 Atom    30 has atomic number  7 and mass  14.00307
 Atom    31 has atomic number  8 and mass  15.99491
 Atom    32 has atomic number  7 and mass  14.00307
 Atom    33 has atomic number  6 and mass  12.00000
 Atom    34 has atomic number  6 and mass  12.00000
 Atom    35 has atomic number  6 and mass  12.00000
 Atom    36 has atomic number  6 and mass  12.00000
 Atom    37 has atomic number  6 and mass  12.00000
 Atom    38 has atomic number  6 and mass  12.00000
 Atom    39 has atomic number  6 and mass  12.00000
 Atom    40 has atomic number 16 and mass  31.97207
 Atom    41 has atomic number  6 and mass  12.00000
 Atom    42 has atomic number  6 and mass  12.00000
 Atom    43 has atomic number  6 and mass  12.00000
 Atom    44 has atomic number 16 and mass  31.97207
 Atom    45 has atomic number  6 and mass  12.00000
 Atom    46 has atomic number  6 and mass  12.00000
 Atom    47 has atomic number  6 and mass  12.00000
 Atom    48 has atomic number  6 and mass  12.00000
 Atom    49 has atomic number  6 and mass  12.00000
 Atom    50 has atomic number  6 and mass  12.00000
 Atom    51 has atomic number  6 and mass  12.00000
 Atom    52 has atomic number  8 and mass  15.99491
 Atom    53 has atomic number  7 and mass  14.00307
 Atom    54 has atomic number  8 and mass  15.99491
 Atom    55 has atomic number  1 and mass   1.00783
 Atom    56 has atomic number  1 and mass   1.00783
 Atom    57 has atomic number  1 and mass   1.00783
 Atom    58 has atomic number  1 and mass   1.00783
 Atom    59 has atomic number  1 and mass   1.00783
 Atom    60 has atomic number  1 and mass   1.00783
 Atom    61 has atomic number  1 and mass   1.00783
 Atom    62 has atomic number  1 and mass   1.00783
 Atom    63 has atomic number  1 and mass   1.00783
 Atom    64 has atomic number  1 and mass   1.00783
 Atom    65 has atomic number  1 and mass   1.00783
 Atom    66 has atomic number  1 and mass   1.00783
 Atom    67 has atomic number  1 and mass   1.00783
 Atom    68 has atomic number  1 and mass   1.00783
 Atom    69 has atomic number  1 and mass   1.00783
 Atom    70 has atomic number  1 and mass   1.00783
 Atom    71 has atomic number  1 and mass   1.00783
 Atom    72 has atomic number  1 and mass   1.00783
 Atom    73 has atomic number  1 and mass   1.00783
 Atom    74 has atomic number  1 and mass   1.00783
 Atom    75 has atomic number  1 and mass   1.00783
 Atom    76 has atomic number  1 and mass   1.00783
 Atom    77 has atomic number  1 and mass   1.00783
 Atom    78 has atomic number  1 and mass   1.00783
 Atom    79 has atomic number  1 and mass   1.00783
 Atom    80 has atomic number  1 and mass   1.00783
 Atom    81 has atomic number  1 and mass   1.00783
 Atom    82 has atomic number  1 and mass   1.00783
 Molecular mass:   736.16028 amu.
 Principal axes and moments of inertia in atomic units:
                           1         2         3
     Eigenvalues --  ******************************
           X            1.00000   0.00082  -0.00039
           Y           -0.00082   1.00000  -0.00067
           Z            0.00039   0.00067   1.00000
 This molecule is an asymmetric top.
 Rotational symmetry number  1.
 Warning -- assumption of classical behavior for rotation
           may cause significant error
 Rotational temperatures (Kelvin)      0.00596     0.00050     0.00046
 Rotational constants (GHZ):           0.12414     0.01032     0.00968
 Zero-point vibrational energy          NaN (Joules/Mol)
                                        NaN (Kcal/Mol)
 Vibrational temperatures:       NaN      NaN      NaN      NaN      NaN
          (Kelvin)               NaN      NaN      NaN      NaN      NaN
                                 NaN      NaN      NaN      NaN      NaN
                                 NaN      NaN      NaN      NaN      NaN
                                 NaN      NaN      NaN      NaN      NaN
                                 NaN      NaN      NaN      NaN      NaN
                                 NaN      NaN      NaN      NaN      NaN
                                 NaN      NaN      NaN      NaN      NaN
                                 NaN      NaN      NaN      NaN      NaN
                                 NaN      NaN      NaN      NaN      NaN
                                 NaN      NaN      NaN      NaN      NaN
                                 NaN      NaN      NaN      NaN      NaN
                                 NaN      NaN      NaN      NaN      NaN
                                 NaN      NaN      NaN      NaN      NaN
                                 NaN      NaN      NaN      NaN      NaN
                                 NaN      NaN      NaN      NaN      NaN
                                 NaN      NaN      NaN      NaN      NaN
                                 NaN      NaN      NaN      NaN      NaN
                                 NaN      NaN      NaN      NaN      NaN
                                 NaN      NaN      NaN      NaN      NaN
                                 NaN      NaN      NaN      NaN      NaN
                                 NaN      NaN      NaN      NaN      NaN
                                 NaN      NaN      NaN      NaN      NaN
                                 NaN      NaN      NaN      NaN      NaN
                                 NaN      NaN      NaN      NaN      NaN
                                 NaN      NaN      NaN      NaN      NaN
                                 NaN      NaN      NaN      NaN      NaN
                                 NaN      NaN      NaN      NaN      NaN
                                 NaN      NaN      NaN      NaN      NaN
                                 NaN      NaN      NaN      NaN      NaN
                                 NaN      NaN      NaN      NaN      NaN
                                 NaN      NaN      NaN      NaN      NaN
                                 NaN      NaN      NaN      NaN      NaN
                                 NaN      NaN      NaN      NaN      NaN
                                 NaN      NaN      NaN      NaN      NaN
                                 NaN      NaN      NaN      NaN      NaN
                                 NaN      NaN      NaN      NaN      NaN
                                 NaN      NaN      NaN      NaN      NaN
                                 NaN      NaN      NaN      NaN      NaN
                                 NaN      NaN      NaN      NaN      NaN
                                 NaN      NaN      NaN      NaN      NaN
                                 NaN      NaN      NaN      NaN      NaN
                                 NaN      NaN      NaN      NaN      NaN
                                 NaN      NaN      NaN      NaN      NaN
                                 NaN      NaN      NaN      NaN      NaN
                                 NaN      NaN      NaN      NaN      NaN
                                 NaN      NaN      NaN      NaN      NaN
                                 NaN      NaN      NaN      NaN      NaN
 
 Zero-point correction=                                NaN (Hartree/Particle)
 Thermal correction to Energy=                    0.002833
 Thermal correction to Enthalpy=                  0.003777
 Thermal correction to Gibbs Free Energy=        -0.264187
 Sum of electronic and zero-point Energies=                   NaN
 Sum of electronic and thermal Energies=                 0.268231
 Sum of electronic and thermal Enthalpies=               0.269176
 Sum of electronic and thermal Free Energies=            0.001212
 
                     E (Thermal)             CV                S
                      KCal/Mol        Cal/Mol-Kelvin    Cal/Mol-Kelvin
 Total                    1.777              5.962            563.977
 Electronic               0.000              0.000              0.000
 Translational            0.889              2.981             45.669
 Rotational               0.889              2.981             41.379
 Vibrational              0.000              0.000            476.929
                       Q            Log10(Q)             Ln(Q)
 Total Bot       0.193521D+18         17.286729         39.804163
 Total V=0       0.193521D+18         17.286729         39.804163
 Vib (Bot)       0.100000D+01          0.000000          0.000000
 Vib (V=0)       0.100000D+01          0.000000          0.000000
 Electronic      0.100000D+01          0.000000          0.000000
 Translational   0.785077D+09          8.894912         20.481293
 Rotational      0.246500D+09          8.391816         19.322871
 -------------------------------------------------------------------
 Center     Atomic                   Forces (Hartrees/Bohr)
 Number     Number              X              Y              Z
 -------------------------------------------------------------------
      1        6           0.000001227    0.000001585   -0.000000525
      2        6           0.000001996   -0.000000017   -0.000000485
      3        6          -0.000000827   -0.000002707    0.000000613
      4        6          -0.000000395    0.000001706   -0.000002405
      5        6          -0.000001299    0.000000478    0.000000256
      6        6          -0.000000508   -0.000001500   -0.000000614
      7        6          -0.000000611    0.000001890   -0.000002659
      8        6          -0.000001449   -0.000000485    0.000000188
      9        6           0.000002334   -0.000001483    0.000000177
     10        6          -0.000002957   -0.000000428   -0.000001672
     11        7          -0.000000737   -0.000007968    0.000001276
     12        6          -0.000004485    0.000008110    0.000000049
     13        6           0.000001567   -0.000002621   -0.000000494
     14        6          -0.000001611    0.000000020    0.000001910
     15        6          -0.000000626    0.000001331   -0.000001381
     16        6           0.000001452   -0.000000354   -0.000000841
     17        6           0.000000641   -0.000002559    0.000000973
     18        6          -0.000002652   -0.000000407    0.000000943
     19        6           0.000001224    0.000000214    0.000000065
     20        6          -0.000000151   -0.000000064   -0.000000322
     21        6          -0.000001035   -0.000001879   -0.000000904
     22        6           0.000002208    0.000002215   -0.000000089
     23        6           0.000002339   -0.000000949   -0.000000655
     24        6          -0.000001698   -0.000002017   -0.000001743
     25        6          -0.000001905    0.000001369   -0.000000371
     26        6           0.000002102    0.000000584    0.000001239
     27        6          -0.000001371   -0.000000565    0.000000259
     28        6           0.000005259   -0.000003657    0.000001795
     29        6          -0.000001693   -0.000000492   -0.000001795
     30        7           0.000002435    0.000003306   -0.000000230
     31        8           0.000000425   -0.000003995    0.000002939
     32        7          -0.000003556    0.000003429   -0.000001412
     33        6           0.000002053    0.000000791    0.000000016
     34        6          -0.000002438   -0.000006326    0.000000096
     35        6           0.000001906    0.000005081   -0.000000442
     36        6          -0.000002589    0.000004043   -0.000000619
     37        6           0.000000214    0.000007594    0.000006219
     38        6           0.000001913   -0.000002113   -0.000003613
     39        6          -0.000007169   -0.000004835   -0.000003296
     40       16           0.000000471    0.000001874    0.000000582
     41        6           0.000000780   -0.000000204   -0.000000456
     42        6          -0.000000210    0.000002170    0.000000069
     43        6           0.000005835    0.000004758    0.000004713
     44       16          -0.000000651   -0.000003771   -0.000003760
     45        6           0.000001408    0.000000517    0.000002265
     46        6           0.000000102    0.000000518   -0.000001796
     47        6           0.000001106    0.000000806    0.000000576
     48        6          -0.000003174   -0.000000161    0.000002102
     49        6           0.000001536    0.000000778   -0.000000348
     50        6          -0.000001989    0.000001056    0.000000235
     51        6           0.000000500    0.000007572   -0.000000839
     52        8           0.000002165   -0.000000725   -0.000001972
     53        7          -0.000003845   -0.000007870    0.000005591
     54        8           0.000001681   -0.000000471    0.000002144
     55        1           0.000000256   -0.000001447   -0.000000764
     56        1          -0.000000625    0.000000363   -0.000000890
     57        1           0.000000079    0.000000211   -0.000000864
     58        1           0.000000377   -0.000000557   -0.000001456
     59        1           0.000001718   -0.000000761    0.000001345
     60        1           0.000000641   -0.000000762   -0.000000849
     61        1           0.000000802   -0.000000923   -0.000000962
     62        1           0.000000284   -0.000000518    0.000001342
     63        1           0.000000082   -0.000000904    0.000000993
     64        1          -0.000000977   -0.000001180    0.000000641
     65        1          -0.000000401    0.000000563   -0.000000012
     66        1           0.000000441    0.000000254    0.000000494
     67        1           0.000000109    0.000000330    0.000000946
     68        1           0.000001462    0.000000953   -0.000000958
     69        1          -0.000000478   -0.000000427   -0.000000815
     70        1           0.000001260   -0.000000098   -0.000000434
     71        1           0.000000794    0.000000185    0.000000490
     72        1          -0.000000264    0.000000423    0.000000990
     73        1           0.000000454   -0.000001897   -0.000000000
     74        1          -0.000000445   -0.000002033    0.000000308
     75        1           0.000000919    0.000001124    0.000001343
     76        1          -0.000001307   -0.000001438    0.000000091
     77        1          -0.000000926   -0.000000484    0.000000534
     78        1           0.000000027    0.000000041    0.000000130
     79        1           0.000000662    0.000000620   -0.000000571
     80        1           0.000000435    0.000000376   -0.000000176
     81        1          -0.000001070    0.000004536   -0.000002255
     82        1           0.000000444    0.000000275   -0.000000195
 -------------------------------------------------------------------
 Cartesian Forces:  Max     0.000008110 RMS     0.000002157

 GradGradGradGradGradGradGradGradGradGradGradGradGradGradGradGradGradGrad
 Berny optimization.
 Search for a local minimum.
 Step number   1 out of a maximum of    2
 All quantities printed in internal units (Hartrees-Bohrs-Radians)
 Second derivative matrix not updated -- analytic derivatives used.
 ITU=  0
     Eigenvalues ---        NaN       NaN       NaN       NaN       NaN
     Eigenvalues ---        NaN       NaN       NaN       NaN       NaN
     Eigenvalues ---        NaN       NaN       NaN       NaN       NaN
     Eigenvalues ---        NaN       NaN       NaN       NaN       NaN
     Eigenvalues ---        NaN       NaN       NaN       NaN       NaN
     Eigenvalues ---        NaN       NaN       NaN       NaN       NaN
     Eigenvalues ---        NaN       NaN       NaN       NaN       NaN
     Eigenvalues ---        NaN       NaN       NaN       NaN       NaN
     Eigenvalues ---        NaN       NaN       NaN       NaN       NaN
     Eigenvalues ---        NaN       NaN       NaN       NaN       NaN
     Eigenvalues ---        NaN       NaN       NaN       NaN       NaN
     Eigenvalues ---        NaN       NaN       NaN       NaN       NaN
     Eigenvalues ---        NaN       NaN       NaN       NaN       NaN
     Eigenvalues ---        NaN       NaN       NaN       NaN       NaN
     Eigenvalues ---        NaN       NaN       NaN       NaN       NaN
     Eigenvalues ---        NaN       NaN       NaN       NaN       NaN
     Eigenvalues ---        NaN       NaN       NaN       NaN       NaN
     Eigenvalues ---        NaN       NaN       NaN       NaN       NaN
     Eigenvalues ---        NaN       NaN       NaN       NaN       NaN
     Eigenvalues ---        NaN       NaN       NaN       NaN       NaN
     Eigenvalues ---        NaN       NaN       NaN       NaN       NaN
     Eigenvalues ---        NaN       NaN       NaN       NaN       NaN
     Eigenvalues ---        NaN       NaN       NaN       NaN       NaN
     Eigenvalues ---        NaN       NaN       NaN       NaN       NaN
     Eigenvalues ---        NaN       NaN       NaN       NaN       NaN
     Eigenvalues ---        NaN       NaN       NaN       NaN       NaN
     Eigenvalues ---        NaN       NaN       NaN       NaN       NaN
     Eigenvalues ---        NaN       NaN       NaN       NaN       NaN
     Eigenvalues ---        NaN       NaN       NaN       NaN       NaN
     Eigenvalues ---        NaN       NaN       NaN       NaN       NaN
     Eigenvalues ---        NaN       NaN       NaN       NaN       NaN
     Eigenvalues ---        NaN       NaN       NaN       NaN       NaN
     Eigenvalues ---        NaN       NaN       NaN       NaN       NaN
     Eigenvalues ---        NaN       NaN       NaN       NaN       NaN
     Eigenvalues ---        NaN       NaN       NaN       NaN       NaN
     Eigenvalues ---        NaN       NaN       NaN       NaN       NaN
     Eigenvalues ---        NaN       NaN       NaN       NaN       NaN
     Eigenvalues ---        NaN       NaN       NaN       NaN       NaN
     Eigenvalues ---        NaN       NaN       NaN       NaN       NaN
     Eigenvalues ---        NaN       NaN       NaN       NaN       NaN
     Eigenvalues ---        NaN       NaN       NaN       NaN       NaN
     Eigenvalues ---        NaN       NaN       NaN       NaN       NaN
     Eigenvalues ---        NaN       NaN       NaN       NaN       NaN
     Eigenvalues ---        NaN       NaN       NaN       NaN       NaN
     Eigenvalues ---        NaN       NaN       NaN       NaN       NaN
     Eigenvalues ---        NaN       NaN       NaN       NaN       NaN
     Eigenvalues ---        NaN       NaN       NaN       NaN       NaN
     Eigenvalues ---        NaN       NaN       NaN       NaN       NaN
 Maximum of*** iterations exceeded in RedStp.
 Error termination via Lnk1e in /opt/apps/chemistry/Gaussian/g16/l103.exe at Fri Feb 22 20:06:03 2019.
 Job cpu time:       0 days  0 hours 32 minutes 29.5 seconds.
 Elapsed time:       0 days  0 hours  1 minutes 41.9 seconds.
 File lengths (MBytes):  RWF=   2890 Int=      0 D2E=      0 Chk=     36 Scr=      1
