 Entering Gaussian System, Link 0=g16
 Initial command:
 /home/yu/g16/l1.exe "/home/yu/g16/scratch/Gau-331713.inp" -scrdir="/home/yu/g16/scratch/"
 Entering Link 1 = /home/yu/g16/l1.exe PID=    331715.
  
 Copyright (c) 1988,1990,1992,1993,1995,1998,2003,2009,2016,
            Gaussian, Inc.  All Rights Reserved.
  
 This is part of the Gaussian(R) 16 program.  It is based on
 the Gaussian(R) 09 system (copyright 2009, Gaussian, Inc.),
 the Gaussian(R) 03 system (copyright 2003, Gaussian, Inc.),
 the Gaussian(R) 98 system (copyright 1998, Gaussian, Inc.),
 the Gaussian(R) 94 system (copyright 1995, Gaussian, Inc.),
 the Gaussian 92(TM) system (copyright 1992, Gaussian, Inc.),
 the Gaussian 90(TM) system (copyright 1990, Gaussian, Inc.),
 the Gaussian 88(TM) system (copyright 1988, Gaussian, Inc.),
 the Gaussian 86(TM) system (copyright 1986, Carnegie Mellon
 University), and the Gaussian 82(TM) system (copyright 1983,
 Carnegie Mellon University). Gaussian is a federally registered
 trademark of Gaussian, Inc.
  
 This software contains proprietary and confidential information,
 including trade secrets, belonging to Gaussian, Inc.
  
 This software is provided under written license and may be
 used, copied, transmitted, or stored only in accord with that
 written license.
  
 The following legend is applicable only to US Government
 contracts under FAR:
  
                    RESTRICTED RIGHTS LEGEND
  
 Use, reproduction and disclosure by the US Government is
 subject to restrictions as set forth in subparagraphs (a)
 and (c) of the Commercial Computer Software - Restricted
 Rights clause in FAR 52.227-19.
  
 Gaussian, Inc.
 340 Quinnipiac St., Bldg. 40, Wallingford CT 06492
  
  
 ---------------------------------------------------------------
 Warning -- This program may not be used in any manner that
 competes with the business of Gaussian, Inc. or will provide
 assistance to any competitor of Gaussian, Inc.  The licensee
 of this program is prohibited from giving any competitor of
 Gaussian, Inc. access to this program.  By using this program,
 the user acknowledges that Gaussian, Inc. is engaged in the
 business of creating and licensing software in the field of
 computational chemistry and represents and warrants to the
 licensee that it is not a competitor of Gaussian, Inc. and that
 it will not use this program in any manner prohibited above.
 ---------------------------------------------------------------
  

 Cite this work as:
 Gaussian 16, Revision A.03,
 M. J. Frisch, G. W. Trucks, H. B. Schlegel, G. E. Scuseria, 
 M. A. Robb, J. R. Cheeseman, G. Scalmani, V. Barone, 
 G. A. Petersson, H. Nakatsuji, X. Li, M. Caricato, A. V. Marenich, 
 J. Bloino, B. G. Janesko, R. Gomperts, B. Mennucci, H. P. Hratchian, 
 J. V. Ortiz, A. F. Izmaylov, J. L. Sonnenberg, D. Williams-Young, 
 F. Ding, F. Lipparini, F. Egidi, J. Goings, B. Peng, A. Petrone, 
 T. Henderson, D. Ranasinghe, V. G. Zakrzewski, J. Gao, N. Rega, 
 G. Zheng, W. Liang, M. Hada, M. Ehara, K. Toyota, R. Fukuda, 
 J. Hasegawa, M. Ishida, T. Nakajima, Y. Honda, O. Kitao, H. Nakai, 
 T. Vreven, K. Throssell, J. A. Montgomery, Jr., J. E. Peralta, 
 F. Ogliaro, M. J. Bearpark, J. J. Heyd, E. N. Brothers, K. N. Kudin, 
 V. N. Staroverov, T. A. Keith, R. Kobayashi, J. Normand, 
 K. Raghavachari, A. P. Rendell, J. C. Burant, S. S. Iyengar, 
 J. Tomasi, M. Cossi, J. M. Millam, M. Klene, C. Adamo, R. Cammi, 
 J. W. Ochterski, R. L. Martin, K. Morokuma, O. Farkas, 
 J. B. Foresman, and D. J. Fox, Gaussian, Inc., Wallingford CT, 2016.
 
 ******************************************
 Gaussian 16:  ES64L-G16RevA.03 25-Dec-2016
                25-Jun-2021 
 ******************************************
 %mem=16GB
 %nprocshared=16
 Will use up to   16 processors via shared memory.
 %Chk=./chk/0-8_0297.chk
 --------------------------------------------------------------------
 # wB97XD/6-31G(d') Opt=(Maxcycle=10) # Integral=(Grid=UltraFineGrid)
 --------------------------------------------------------------------
 1/6=10,18=20,19=15,26=4,38=1/1,3;
 2/9=110,12=2,17=6,18=5,40=1/2;
 3/5=11,6=6,7=1,11=2,25=1,30=1,71=1,74=-58,75=-5/1,2,3;
 4//1;
 5/5=2,38=5/2;
 6/7=2,8=2,9=2,10=2,28=1/1;
 7//1,2,3,16;
 1/6=10,18=20,19=15,26=4/3(2);
 2/9=110/2;
 99//99;
 2/9=110/2;
 3/5=11,6=6,7=1,11=2,25=1,30=1,71=1,74=-58,75=-5/1,2,3;
 4/5=5,16=3,69=1/1;
 5/5=2,38=5/2;
 7//1,2,3,16;
 1/6=10,18=20,19=15,26=4/3(-5);
 2/9=110/2;
 6/7=2,8=2,9=2,10=2,19=2,28=1/1;
 99/9=1/99;
 -----------------
 Optimize geometry
 -----------------
 Symbolic Z-matrix:
 Charge =  0 Multiplicity = 1
 C                    -1.21136  -0.68919   0. 
 C                    -1.20254   0.70448   0. 
 C                     0.00884   1.39366   0. 
 C                     1.21136   0.68919  0. 
 C                     1.20254  -0.70448  0. 
 C                    -0.00884  -1.39366  0. 
 H                    -2.15672  -1.22699  -0.00001 
 H                    -2.14096   1.2543   -0.00002 
 H                     0.0158    2.48126  -0.00001 
 H                     2.15672   1.22699  0. 
 H                     2.14096  -1.2543    0. 
 H                    -0.0158   -2.48126  0. 
 C                     6.50305   2.84901   6.46054 
 C                     5.23201   1.99986   6.46054 
 C                     3.95349   2.83951   6.46054 
 C                     2.67498   1.99986   6.46054 
 C                     1.40394   2.84901   6.46054 
 H                     6.54415   3.49655   5.57512 
 H                     6.54415   3.49654   7.34596 
 H                     7.40401   2.22399   6.46054 
 H                     5.23095   1.33896   7.33953 
 H                     5.23095   1.33896   5.58156 
 H                     3.95349   3.50226   5.58126 
 H                     3.95349   3.50226   7.33982 
 H                     2.67604   1.33896   5.58156 
 H                     2.67604   1.33896   7.33953 
 H                     1.36284   3.49655   5.57512 
 H                     1.36284   3.49655   7.34596 
 H                     0.50298   2.22399   6.46054 
 
 Add virtual bond connecting atoms H25        and H10        Dist= 1.06D+01.

 GradGradGradGradGradGradGradGradGradGradGradGradGradGradGradGradGradGrad
 Berny optimization.
 Initialization pass.
                           ----------------------------
                           !    Initial Parameters    !
                           ! (Angstroms and Degrees)  !
 --------------------------                            --------------------------
 ! Name  Definition              Value          Derivative Info.                !
 --------------------------------------------------------------------------------
 ! R1    R(1,2)                  1.3937         estimate D2E/DX2                !
 ! R2    R(1,6)                  1.3937         estimate D2E/DX2                !
 ! R3    R(1,7)                  1.0876         estimate D2E/DX2                !
 ! R4    R(2,3)                  1.3937         estimate D2E/DX2                !
 ! R5    R(2,8)                  1.0876         estimate D2E/DX2                !
 ! R6    R(3,4)                  1.3937         estimate D2E/DX2                !
 ! R7    R(3,9)                  1.0876         estimate D2E/DX2                !
 ! R8    R(4,5)                  1.3937         estimate D2E/DX2                !
 ! R9    R(4,10)                 1.0876         estimate D2E/DX2                !
 ! R10   R(5,6)                  1.3937         estimate D2E/DX2                !
 ! R11   R(5,11)                 1.0876         estimate D2E/DX2                !
 ! R12   R(6,12)                 1.0876         estimate D2E/DX2                !
 ! R13   R(10,25)                5.6068         estimate D2E/DX2                !
 ! R14   R(13,14)                1.5286         estimate D2E/DX2                !
 ! R15   R(13,18)                1.0977         estimate D2E/DX2                !
 ! R16   R(13,19)                1.0977         estimate D2E/DX2                !
 ! R17   R(13,20)                1.0965         estimate D2E/DX2                !
 ! R18   R(14,15)                1.5296         estimate D2E/DX2                !
 ! R19   R(14,21)                1.0997         estimate D2E/DX2                !
 ! R20   R(14,22)                1.0997         estimate D2E/DX2                !
 ! R21   R(15,16)                1.5296         estimate D2E/DX2                !
 ! R22   R(15,23)                1.1011         estimate D2E/DX2                !
 ! R23   R(15,24)                1.1011         estimate D2E/DX2                !
 ! R24   R(16,17)                1.5286         estimate D2E/DX2                !
 ! R25   R(16,25)                1.0997         estimate D2E/DX2                !
 ! R26   R(16,26)                1.0997         estimate D2E/DX2                !
 ! R27   R(17,27)                1.0977         estimate D2E/DX2                !
 ! R28   R(17,28)                1.0977         estimate D2E/DX2                !
 ! R29   R(17,29)                1.0965         estimate D2E/DX2                !
 ! A1    A(2,1,6)              120.0002         estimate D2E/DX2                !
 ! A2    A(2,1,7)              119.9974         estimate D2E/DX2                !
 ! A3    A(6,1,7)              120.0025         estimate D2E/DX2                !
 ! A4    A(1,2,3)              119.9987         estimate D2E/DX2                !
 ! A5    A(1,2,8)              120.0032         estimate D2E/DX2                !
 ! A6    A(3,2,8)              119.9981         estimate D2E/DX2                !
 ! A7    A(2,3,4)              120.0012         estimate D2E/DX2                !
 ! A8    A(2,3,9)              120.0029         estimate D2E/DX2                !
 ! A9    A(4,3,9)              119.9959         estimate D2E/DX2                !
 ! A10   A(3,4,5)              120.0001         estimate D2E/DX2                !
 ! A11   A(3,4,10)             120.0025         estimate D2E/DX2                !
 ! A12   A(5,4,10)             119.9974         estimate D2E/DX2                !
 ! A13   A(4,5,6)              119.9987         estimate D2E/DX2                !
 ! A14   A(4,5,11)             120.0032         estimate D2E/DX2                !
 ! A15   A(6,5,11)             119.9981         estimate D2E/DX2                !
 ! A16   A(1,6,5)              120.0011         estimate D2E/DX2                !
 ! A17   A(1,6,12)             119.996          estimate D2E/DX2                !
 ! A18   A(5,6,12)             120.0029         estimate D2E/DX2                !
 ! A19   A(4,10,25)             95.1854         estimate D2E/DX2                !
 ! A20   A(14,13,18)           111.0283         estimate D2E/DX2                !
 ! A21   A(14,13,19)           111.0283         estimate D2E/DX2                !
 ! A22   A(14,13,20)           111.5044         estimate D2E/DX2                !
 ! A23   A(18,13,19)           107.5314         estimate D2E/DX2                !
 ! A24   A(18,13,20)           107.7869         estimate D2E/DX2                !
 ! A25   A(19,13,20)           107.7868         estimate D2E/DX2                !
 ! A26   A(13,14,15)           112.9599         estimate D2E/DX2                !
 ! A27   A(13,14,21)           109.5508         estimate D2E/DX2                !
 ! A28   A(13,14,22)           109.5507         estimate D2E/DX2                !
 ! A29   A(15,14,21)           109.2136         estimate D2E/DX2                !
 ! A30   A(15,14,22)           109.2135         estimate D2E/DX2                !
 ! A31   A(21,14,22)           106.1217         estimate D2E/DX2                !
 ! A32   A(14,15,16)           113.4113         estimate D2E/DX2                !
 ! A33   A(14,15,23)           109.2939         estimate D2E/DX2                !
 ! A34   A(14,15,24)           109.2939         estimate D2E/DX2                !
 ! A35   A(16,15,23)           109.2939         estimate D2E/DX2                !
 ! A36   A(16,15,24)           109.2939         estimate D2E/DX2                !
 ! A37   A(23,15,24)           105.9861         estimate D2E/DX2                !
 ! A38   A(15,16,17)           112.9599         estimate D2E/DX2                !
 ! A39   A(15,16,25)           109.2136         estimate D2E/DX2                !
 ! A40   A(15,16,26)           109.2135         estimate D2E/DX2                !
 ! A41   A(17,16,25)           109.5507         estimate D2E/DX2                !
 ! A42   A(17,16,26)           109.5507         estimate D2E/DX2                !
 ! A43   A(25,16,26)           106.1218         estimate D2E/DX2                !
 ! A44   A(16,17,27)           111.0283         estimate D2E/DX2                !
 ! A45   A(16,17,28)           111.0283         estimate D2E/DX2                !
 ! A46   A(16,17,29)           111.5044         estimate D2E/DX2                !
 ! A47   A(27,17,28)           107.5314         estimate D2E/DX2                !
 ! A48   A(27,17,29)           107.7868         estimate D2E/DX2                !
 ! A49   A(28,17,29)           107.7868         estimate D2E/DX2                !
 ! A50   A(10,25,16)           143.8612         estimate D2E/DX2                !
 ! D1    D(6,1,2,3)             -0.0001         estimate D2E/DX2                !
 ! D2    D(6,1,2,8)            179.9986         estimate D2E/DX2                !
 ! D3    D(7,1,2,3)           -179.9994         estimate D2E/DX2                !
 ! D4    D(7,1,2,8)             -0.0007         estimate D2E/DX2                !
 ! D5    D(2,1,6,5)              0.0            estimate D2E/DX2                !
 ! D6    D(2,1,6,12)           180.0            estimate D2E/DX2                !
 ! D7    D(7,1,6,5)            179.9993         estimate D2E/DX2                !
 ! D8    D(7,1,6,12)            -0.0008         estimate D2E/DX2                !
 ! D9    D(1,2,3,4)              0.0001         estimate D2E/DX2                !
 ! D10   D(1,2,3,9)            179.9992         estimate D2E/DX2                !
 ! D11   D(8,2,3,4)           -179.9986         estimate D2E/DX2                !
 ! D12   D(8,2,3,9)              0.0004         estimate D2E/DX2                !
 ! D13   D(2,3,4,5)              0.0            estimate D2E/DX2                !
 ! D14   D(2,3,4,10)           179.9998         estimate D2E/DX2                !
 ! D15   D(9,3,4,5)           -179.9991         estimate D2E/DX2                !
 ! D16   D(9,3,4,10)             0.0007         estimate D2E/DX2                !
 ! D17   D(3,4,5,6)              0.0            estimate D2E/DX2                !
 ! D18   D(3,4,5,11)          -179.9994         estimate D2E/DX2                !
 ! D19   D(10,4,5,6)          -179.9998         estimate D2E/DX2                !
 ! D20   D(10,4,5,11)            0.0008         estimate D2E/DX2                !
 ! D21   D(3,4,10,25)           91.6364         estimate D2E/DX2                !
 ! D22   D(5,4,10,25)          -88.3638         estimate D2E/DX2                !
 ! D23   D(4,5,6,1)              0.0            estimate D2E/DX2                !
 ! D24   D(4,5,6,12)          -179.9999         estimate D2E/DX2                !
 ! D25   D(11,5,6,1)           179.9994         estimate D2E/DX2                !
 ! D26   D(11,5,6,12)           -0.0005         estimate D2E/DX2                !
 ! D27   D(4,10,25,16)        -112.349          estimate D2E/DX2                !
 ! D28   D(18,13,14,15)        -59.7863         estimate D2E/DX2                !
 ! D29   D(18,13,14,21)        178.2274         estimate D2E/DX2                !
 ! D30   D(18,13,14,22)         62.1999         estimate D2E/DX2                !
 ! D31   D(19,13,14,15)         59.7867         estimate D2E/DX2                !
 ! D32   D(19,13,14,21)        -62.1995         estimate D2E/DX2                !
 ! D33   D(19,13,14,22)       -178.2271         estimate D2E/DX2                !
 ! D34   D(20,13,14,15)       -179.9998         estimate D2E/DX2                !
 ! D35   D(20,13,14,21)         58.0139         estimate D2E/DX2                !
 ! D36   D(20,13,14,22)        -58.0136         estimate D2E/DX2                !
 ! D37   D(13,14,15,16)       -180.0            estimate D2E/DX2                !
 ! D38   D(13,14,15,23)         57.7881         estimate D2E/DX2                !
 ! D39   D(13,14,15,24)        -57.788          estimate D2E/DX2                !
 ! D40   D(21,14,15,16)        -57.8245         estimate D2E/DX2                !
 ! D41   D(21,14,15,23)        179.9636         estimate D2E/DX2                !
 ! D42   D(21,14,15,24)         64.3875         estimate D2E/DX2                !
 ! D43   D(22,14,15,16)         57.8246         estimate D2E/DX2                !
 ! D44   D(22,14,15,23)        -64.3874         estimate D2E/DX2                !
 ! D45   D(22,14,15,24)       -179.9634         estimate D2E/DX2                !
 ! D46   D(14,15,16,17)        180.0            estimate D2E/DX2                !
 ! D47   D(14,15,16,25)        -57.8246         estimate D2E/DX2                !
 ! D48   D(14,15,16,26)         57.8245         estimate D2E/DX2                !
 ! D49   D(23,15,16,17)        -57.7881         estimate D2E/DX2                !
 ! D50   D(23,15,16,25)         64.3874         estimate D2E/DX2                !
 ! D51   D(23,15,16,26)       -179.9635         estimate D2E/DX2                !
 ! D52   D(24,15,16,17)         57.788          estimate D2E/DX2                !
 ! D53   D(24,15,16,25)        179.9635         estimate D2E/DX2                !
 ! D54   D(24,15,16,26)        -64.3874         estimate D2E/DX2                !
 ! D55   D(15,16,17,27)         59.7865         estimate D2E/DX2                !
 ! D56   D(15,16,17,28)        -59.7866         estimate D2E/DX2                !
 ! D57   D(15,16,17,29)        180.0            estimate D2E/DX2                !
 ! D58   D(25,16,17,27)        -62.1997         estimate D2E/DX2                !
 ! D59   D(25,16,17,28)        178.2271         estimate D2E/DX2                !
 ! D60   D(25,16,17,29)         58.0137         estimate D2E/DX2                !
 ! D61   D(26,16,17,27)       -178.2273         estimate D2E/DX2                !
 ! D62   D(26,16,17,28)         62.1996         estimate D2E/DX2                !
 ! D63   D(26,16,17,29)        -58.0139         estimate D2E/DX2                !
 ! D64   D(15,16,25,10)        -71.4259         estimate D2E/DX2                !
 ! D65   D(17,16,25,10)         52.7773         estimate D2E/DX2                !
 ! D66   D(26,16,25,10)        170.9608         estimate D2E/DX2                !
 --------------------------------------------------------------------------------
 Trust Radius=3.00D-01 FncErr=1.00D-07 GrdErr=1.00D-06 EigMax=2.50D+02 EigMin=1.00D-04
 Number of steps in this run=     10 maximum allowed number of steps=    174.
 GradGradGradGradGradGradGradGradGradGradGradGradGradGradGradGradGradGrad

                          Input orientation:                          
 ---------------------------------------------------------------------
 Center     Atomic      Atomic             Coordinates (Angstroms)
 Number     Number       Type             X           Y           Z
 ---------------------------------------------------------------------
      1          6           0       -1.211364   -0.689190    0.000002
      2          6           0       -1.202544    0.704485    0.000003
      3          6           0        0.008839    1.393656    0.000003
      4          6           0        1.211364    0.689190   -0.000000
      5          6           0        1.202544   -0.704484   -0.000002
      6          6           0       -0.008839   -1.393656   -0.000001
      7          1           0       -2.156721   -1.226988   -0.000008
      8          1           0       -2.140962    1.254297   -0.000017
      9          1           0        0.015802    2.481264   -0.000010
     10          1           0        2.156721    1.226988   -0.000004
     11          1           0        2.140962   -1.254297    0.000005
     12          1           0       -0.015801   -2.481263   -0.000001
     13          6           0        6.503047    2.849006    6.460541
     14          6           0        5.232005    1.999861    6.460541
     15          6           0        3.953494    2.839506    6.460540
     16          6           0        2.674983    1.999861    6.460541
     17          6           0        1.403941    2.849006    6.460541
     18          1           0        6.544147    3.496548    5.575124
     19          1           0        6.544149    3.496544    7.345962
     20          1           0        7.404010    2.223988    6.460539
     21          1           0        5.230946    1.338962    7.339526
     22          1           0        5.230947    1.338962    5.581556
     23          1           0        3.953494    3.502255    5.581262
     24          1           0        3.953494    3.502257    7.339817
     25          1           0        2.676041    1.338962    5.581557
     26          1           0        2.676042    1.338963    7.339527
     27          1           0        1.362840    3.496546    5.575122
     28          1           0        1.362839    3.496546    7.345961
     29          1           0        0.502978    2.223988    6.460541
 ---------------------------------------------------------------------
                    Distance matrix (angstroms):
                    1          2          3          4          5
     1  C    0.000000
     2  C    1.393703   0.000000
     3  C    2.413948   1.393703   0.000000
     4  C    2.787390   2.413957   1.393678   0.000000
     5  C    2.413956   2.787408   2.413944   1.393702   0.000000
     6  C    1.393678   2.413945   2.787369   2.413948   1.393703
     7  H    1.087624   2.154307   3.399622   3.875014   3.399658
     8  H    2.154367   1.087622   2.154313   3.399623   3.875030
     9  H    3.399664   2.154370   1.087630   2.154274   3.399609
    10  H    3.875014   3.399658   2.154339   1.087624   2.154307
    11  H    3.399623   3.875030   3.399648   2.154367   1.087622
    12  H    2.154274   3.399610   3.874998   3.399663   2.154370
    13  C   10.666280  10.281715   9.275307   8.625851   9.080817
    14  C    9.512442   9.209776   8.329916   7.721529   8.080140
    15  C    8.992553   8.537071   7.706447   7.340416   7.865507
    16  C    8.004577   7.645375   7.015295   6.752676   7.156827
    17  C    7.816471   7.289121   6.767784   6.814725   7.376074
    18  H   10.428343   9.944286   8.843889   8.209863   8.789962
    19  H   11.473076  11.034943  10.054627   9.501736  10.007226
    20  H   11.155708  10.868311   9.854772   9.079815   9.421928
    21  H    9.974235   9.780642   9.007885   8.393324   8.618142
    22  H    8.761878   8.540849   7.643764   6.908909   7.180355
    23  H    8.682997   8.097080   7.152408   6.825181   7.510985
    24  H    9.905396   9.396017   8.595311   8.324995   8.895917
    25  H    7.097822   6.826399   6.186332   5.807001   6.123779
    26  H    8.549500   8.325539   7.809326   7.512399   7.759868
    27  H    7.431613   6.742311   6.110435   6.243891   6.982575
    28  H    8.837987   8.266795   7.760062   7.865579   8.463895
    29  H    7.291374   6.852463   6.532394   6.678024   7.127689
                    6          7          8          9         10
     6  C    0.000000
     7  H    2.154339   0.000000
     8  H    3.399648   2.481335   0.000000
     9  H    3.874999   4.297789   2.481346   0.000000
    10  H    3.399622   4.962638   4.297770   2.481279   0.000000
    11  H    2.154313   4.297770   4.962652   4.297757   2.481335
    12  H    1.087629   2.481279   4.297758   4.962628   4.297788
    13  C   10.106604  11.547467  10.908748   9.162876   7.953624
    14  C    8.984487  10.331724   9.831343   8.317406   7.196759
    15  C    8.680918   9.778025   9.021866   7.574461   6.896901
    16  C    7.775440   8.688878   8.092465   7.002979   6.527218
    17  C    7.857145   8.427973   7.539777   6.618223   6.703452
    18  H    9.896350  11.362174  10.561297   8.644779   7.448655
    19  H   10.991764  12.328024  11.594060   9.879950   8.852323
    20  H   10.477417  12.043898  11.566571   9.817866   8.382522
    21  H    9.422909  10.725226  10.402936   9.075867   7.958147
    22  H    8.128735   9.608100   9.246954   7.723760   6.373164
    23  H    8.415493   9.531581   8.564250   6.906405   6.289338
    24  H    9.671762  10.657087   9.801473   8.391716   7.891655
    25  H    6.769754   7.816237   7.373239   6.287735   5.606787
    26  H    8.279159   9.154697   8.779499   7.889900   7.358733
    27  H    7.541723   8.110558   6.956039   5.824724   6.071505
    28  H    8.930775   9.416068   8.442019   7.537148   7.729447
    29  H    7.422123   7.792427   7.047661   6.483999   6.742961
                   11         12         13         14         15
    11  H    0.000000
    12  H    2.481345   0.000000
    13  C    8.809280  10.613471   0.000000
    14  C    7.866551   9.452965   1.528592   0.000000
    15  C    7.860217   9.263071   2.549571   1.529573   0.000000
    16  C    7.253499   8.310199   3.921112   2.557022   1.529573
    17  C    7.688877   8.495060   5.099106   3.921112   2.549571
    18  H    8.546375  10.480896   1.097708   2.178475   2.815519
    19  H    9.793959  11.520864   1.097709   2.178475   2.815522
    20  H    9.029765  10.905575   1.096532   2.183538   3.504985
    21  H    8.375056   9.797507   2.161270   1.099729   2.157807
    22  H    6.886706   8.560156   2.161270   1.099729   2.157807
    23  H    7.553840   9.094410   2.774903   2.159840   1.101075
    24  H    8.932129  10.267948   2.774902   2.159840   1.101075
    25  H    6.177785   7.279693   4.206997   2.782508   2.157807
    26  H    7.802557   8.701082   4.206996   2.782508   2.157807
    27  H    7.365997   8.289563   5.255949   4.241989   2.815520
    28  H    8.782885   9.570685   5.255950   4.241990   2.815522
    29  H    7.517978   8.009190   6.032535   4.734335   3.504985
                   16         17         18         19         20
    16  C    0.000000
    17  C    1.528592   0.000000
    18  H    4.241988   5.255948   0.000000
    19  H    4.241990   5.255950   1.770838   0.000000
    20  H    4.734335   6.032535   1.772776   1.772776   0.000000
    21  H    2.782508   4.206996   3.081037   2.525808   2.505613
    22  H    2.782509   4.206997   2.525809   3.081037   2.505611
    23  H    2.159840   2.774903   2.590667   3.134596   3.783273
    24  H    2.159840   2.774902   3.134590   2.590669   3.783274
    25  H    1.099728   2.161269   4.429161   4.767656   4.889741
    26  H    1.099729   2.161270   4.767654   4.429159   4.889741
    27  H    2.178475   1.097709   5.181307   5.475567   6.236914
    28  H    2.178476   1.097709   5.475565   5.181310   6.236916
    29  H    2.183538   1.096532   6.236914   6.236916   6.901032
                   21         22         23         24         25
    21  H    0.000000
    22  H    1.757970   0.000000
    23  H    3.066466   2.512314   0.000000
    24  H    2.512315   3.066466   1.758555   0.000000
    25  H    3.101289   2.554906   2.512314   3.066465   0.000000
    26  H    2.554904   3.101290   3.066466   2.512315   1.757970
    27  H    4.767655   4.429160   2.590668   3.134592   2.525808
    28  H    4.429160   4.767657   3.134595   2.590669   3.081037
    29  H    4.889741   4.889742   3.783274   3.783274   2.505611
                   26         27         28         29
    26  H    0.000000
    27  H    3.081037   0.000000
    28  H    2.525808   1.770839   0.000000
    29  H    2.505612   1.772776   1.772776   0.000000
 Stoichiometry    C11H18
 Framework group  C1[X(C11H18)]
 Deg. of freedom    81
 Full point group                 C1      NOp   1
 Largest Abelian subgroup         C1      NOp   1
 Largest concise Abelian subgroup C1      NOp   1
                         Standard orientation:                         
 ---------------------------------------------------------------------
 Center     Atomic      Atomic             Coordinates (Angstroms)
 Number     Number       Type             X           Y           Z
 ---------------------------------------------------------------------
      1          6           0        4.868461    0.533738   -0.647691
      2          6           0        4.423559    0.960727    0.602169
      3          6           0        3.537903    0.171394    1.333588
      4          6           0        3.097161   -1.044886    0.815178
      5          6           0        3.542064   -1.471874   -0.434681
      6          6           0        4.427719   -0.682541   -1.166101
      7          1           0        5.559621    1.149735   -1.218456
      8          1           0        4.767498    1.909889    1.006792
      9          1           0        3.190673    0.504537    2.308978
     10          1           0        2.406012   -1.660888    1.385950
     11          1           0        3.198134   -2.421042   -0.839299
     12          1           0        4.774958   -1.015691   -2.141485
     13          6           0       -5.491389   -1.756500    0.446773
     14          6           0       -4.522323   -0.967567   -0.433620
     15          6           0       -4.082354    0.353818    0.198805
     16          6           0       -3.112169    1.151902   -0.673776
     17          6           0       -2.679319    2.470058   -0.032135
     18          1           0       -5.034858   -2.000138    1.414855
     19          1           0       -6.402164   -1.177422    0.647079
     20          1           0       -5.790911   -2.698062   -0.028759
     21          1           0       -4.991753   -0.764269   -1.407124
     22          1           0       -3.634382   -1.581011   -0.644931
     23          1           0       -3.612698    0.151838    1.173994
     24          1           0       -4.970521    0.968851    0.411549
     25          1           0       -2.225396    0.536705   -0.884888
     26          1           0       -3.582767    1.353445   -1.647080
     27          1           0       -2.177453    2.294553    0.928225
     28          1           0       -3.544759    3.117274    0.160453
     29          1           0       -1.985110    3.022081   -0.676904
 ---------------------------------------------------------------------
 Rotational constants (GHZ):           1.4399890           0.1950909           0.1835859
 Standard basis: 6-31(d') (6D, 7F)
 There are   201 symmetry adapted cartesian basis functions of A   symmetry.
 There are   201 symmetry adapted basis functions of A   symmetry.
   201 basis functions,   380 primitive gaussians,   201 cartesian basis functions
    42 alpha electrons       42 beta electrons
       nuclear repulsion energy       502.6438868146 Hartrees.
 NAtoms=   29 NActive=   29 NUniq=   29 SFac= 1.00D+00 NAtFMM=   60 NAOKFM=F Big=F
 Integral buffers will be    131072 words long.
 Raffenetti 2 integral format.
 Two-electron integral symmetry is turned on.
 Nuclear repulsion after empirical dispersion term =      502.6308578001 Hartrees.
 One-electron integrals computed using PRISM.
 NBasis=   201 RedAO= T EigKep=  4.01D-04  NBF=   201
 NBsUse=   201 1.00D-06 EigRej= -1.00D+00 NBFU=   201
 ExpMin= 1.61D-01 ExpMax= 3.05D+03 ExpMxC= 4.57D+02 IAcc=3 IRadAn=         5 AccDes= 0.00D+00
 Harris functional with IExCor= 4639 and IRadAn=       5 diagonalized for initial guess.
 HarFok:  IExCor= 4639 AccDes= 0.00D+00 IRadAn=         5 IDoV= 1 UseB2=F ITyADJ=14
 ICtDFT=  3500011 ScaDFX=  1.000000  1.000000  1.000000  1.000000
 FoFCou: FMM=F IPFlag=           0 FMFlag=      100000 FMFlg1=           0
         NFxFlg=           0 DoJE=T BraDBF=F KetDBF=T FulRan=T
         wScrn=  0.000000 ICntrl=       500 IOpCl=  0 I1Cent=   200000004 NGrid=           0
         NMat0=    1 NMatS0=      1 NMatT0=    0 NMatD0=    1 NMtDS0=    0 NMtDT0=    0
 Petite list used in FoFCou.
 Requested convergence on RMS density matrix=1.00D-08 within 128 cycles.
 Requested convergence on MAX density matrix=1.00D-06.
 Requested convergence on             energy=1.00D-06.
 No special actions if energy rises.
 Integral accuracy reduced to 1.0D-05 until final iterations.
 Initial convergence to 1.0D-05 achieved.  Increase integral accuracy.
 SCF Done:  E(RwB97XD) =  -429.870740521     A.U. after   12 cycles
            NFock= 12  Conv=0.20D-08     -V/T= 2.0102

 **********************************************************************

            Population analysis using the SCF density.

 **********************************************************************

 Orbital symmetries:
       Occupied  (A) (A) (A) (A) (A) (A) (A) (A) (A) (A) (A) (A)
                 (A) (A) (A) (A) (A) (A) (A) (A) (A) (A) (A) (A)
                 (A) (A) (A) (A) (A) (A) (A) (A) (A) (A) (A) (A)
                 (A) (A) (A) (A) (A) (A)
       Virtual   (A) (A) (A) (A) (A) (A) (A) (A) (A) (A) (A) (A)
                 (A) (A) (A) (A) (A) (A) (A) (A) (A) (A) (A) (A)
                 (A) (A) (A) (A) (A) (A) (A) (A) (A) (A) (A) (A)
                 (A) (A) (A) (A) (A) (A) (A) (A) (A) (A) (A) (A)
                 (A) (A) (A) (A) (A) (A) (A) (A) (A) (A) (A) (A)
                 (A) (A) (A) (A) (A) (A) (A) (A) (A) (A) (A) (A)
                 (A) (A) (A) (A) (A) (A) (A) (A) (A) (A) (A) (A)
                 (A) (A) (A) (A) (A) (A) (A) (A) (A) (A) (A) (A)
                 (A) (A) (A) (A) (A) (A) (A) (A) (A) (A) (A) (A)
                 (A) (A) (A) (A) (A) (A) (A) (A) (A) (A) (A) (A)
                 (A) (A) (A) (A) (A) (A) (A) (A) (A) (A) (A) (A)
                 (A) (A) (A) (A) (A) (A) (A) (A) (A) (A) (A) (A)
                 (A) (A) (A) (A) (A) (A) (A) (A) (A) (A) (A) (A)
                 (A) (A) (A)
 The electronic state is 1-A.
 Alpha  occ. eigenvalues --  -10.29955 -10.29927 -10.29926 -10.29866 -10.29866
 Alpha  occ. eigenvalues --  -10.29837 -10.28595 -10.28521 -10.28349 -10.27965
 Alpha  occ. eigenvalues --  -10.27861  -0.94919  -0.89495  -0.84268  -0.83901
 Alpha  occ. eigenvalues --   -0.83900  -0.76547  -0.69055  -0.69054  -0.68591
 Alpha  occ. eigenvalues --   -0.66152  -0.60929  -0.55770  -0.54536  -0.52477
 Alpha  occ. eigenvalues --   -0.51773  -0.51177  -0.50090  -0.50089  -0.48146
 Alpha  occ. eigenvalues --   -0.47221  -0.45385  -0.44962  -0.42827  -0.41901
 Alpha  occ. eigenvalues --   -0.41900  -0.40952  -0.40038  -0.39450  -0.38766
 Alpha  occ. eigenvalues --   -0.32194  -0.32192
 Alpha virt. eigenvalues --    0.07518   0.07519   0.17349   0.17665   0.19514
 Alpha virt. eigenvalues --    0.21017   0.21946   0.23132   0.23135   0.23844
 Alpha virt. eigenvalues --    0.25035   0.25942   0.26048   0.26230   0.26895
 Alpha virt. eigenvalues --    0.26897   0.27814   0.28344   0.28451   0.28687
 Alpha virt. eigenvalues --    0.28969   0.31045   0.33816   0.36041   0.36088
 Alpha virt. eigenvalues --    0.38667   0.38667   0.40241   0.40242   0.55739
 Alpha virt. eigenvalues --    0.57176   0.59389   0.59734   0.61388   0.61676
 Alpha virt. eigenvalues --    0.63508   0.64170   0.64302   0.64402   0.65460
 Alpha virt. eigenvalues --    0.67202   0.67203   0.67338   0.67832   0.67833
 Alpha virt. eigenvalues --    0.67952   0.67954   0.68221   0.73714   0.74230
 Alpha virt. eigenvalues --    0.75609   0.75610   0.77124   0.79898   0.83796
 Alpha virt. eigenvalues --    0.83862   0.86234   0.90741   0.91464   0.91467
 Alpha virt. eigenvalues --    0.92446   0.92448   0.92482   0.92855   0.95808
 Alpha virt. eigenvalues --    0.96174   0.96685   0.98327   0.98703   0.99244
 Alpha virt. eigenvalues --    0.99927   0.99928   1.00570   1.01119   1.02863
 Alpha virt. eigenvalues --    1.03194   1.03393   1.05367   1.07479   1.08138
 Alpha virt. eigenvalues --    1.08194   1.10426   1.11038   1.14299   1.14300
 Alpha virt. eigenvalues --    1.21412   1.21858   1.21860   1.25304   1.27186
 Alpha virt. eigenvalues --    1.29397   1.29398   1.32761   1.32761   1.37754
 Alpha virt. eigenvalues --    1.40888   1.48935   1.49150   1.51269   1.51270
 Alpha virt. eigenvalues --    1.55004   1.57814   1.65937   1.71809   1.72631
 Alpha virt. eigenvalues --    1.74879   1.77927   1.78086   1.78889   1.84691
 Alpha virt. eigenvalues --    1.85402   1.86562   1.88935   1.88935   1.89718
 Alpha virt. eigenvalues --    1.89720   1.92821   1.95411   1.96204   1.96205
 Alpha virt. eigenvalues --    1.97089   1.99532   2.03101   2.03103   2.04707
 Alpha virt. eigenvalues --    2.04708   2.11561   2.11752   2.13939   2.16224
 Alpha virt. eigenvalues --    2.17878   2.19958   2.25924   2.27244   2.29935
 Alpha virt. eigenvalues --    2.30779   2.32289   2.32290   2.39747   2.39749
 Alpha virt. eigenvalues --    2.43947   2.44744   2.46834   2.61196   2.61471
 Alpha virt. eigenvalues --    2.61472   2.62523   3.03518   3.10580   3.10581
 Alpha virt. eigenvalues --    3.30998   3.33401   3.37203   3.38764   3.38765
 Alpha virt. eigenvalues --    3.43720   3.49655   3.67065   3.87773
          Condensed to atoms (all electrons):
               1          2          3          4          5          6
     1  C    4.833732   0.563072  -0.025679  -0.037748  -0.025682   0.563091
     2  C    0.563072   4.833660   0.563111  -0.025677  -0.037749  -0.025674
     3  C   -0.025679   0.563111   4.833681   0.563083  -0.025673  -0.037748
     4  C   -0.037748  -0.025677   0.563083   4.833916   0.563066  -0.025685
     5  C   -0.025682  -0.037749  -0.025673   0.563066   4.833834   0.563100
     6  C    0.563091  -0.025674  -0.037748  -0.025685   0.563100   4.833709
     7  H    0.372931  -0.042156   0.003780   0.000509   0.003780  -0.042161
     8  H   -0.042154   0.372934  -0.042152   0.003780   0.000509   0.003780
     9  H    0.003781  -0.042141   0.372925  -0.042192   0.003781   0.000509
    10  H    0.000509   0.003782  -0.042184   0.372916  -0.042193   0.003782
    11  H    0.003781   0.000508   0.003781  -0.042188   0.372925  -0.042154
    12  H   -0.042157   0.003780   0.000509   0.003780  -0.042164   0.372931
    13  C   -0.000000  -0.000000   0.000000   0.000000   0.000000  -0.000000
    14  C   -0.000000   0.000000   0.000000  -0.000000  -0.000000  -0.000000
    15  C   -0.000000  -0.000000   0.000000   0.000000   0.000000   0.000000
    16  C    0.000000   0.000000  -0.000000  -0.000000  -0.000000   0.000000
    17  C   -0.000000  -0.000000  -0.000000  -0.000000   0.000000   0.000000
    18  H    0.000000   0.000000  -0.000000  -0.000000  -0.000000   0.000000
    19  H   -0.000000   0.000000   0.000000   0.000000   0.000000   0.000000
    20  H    0.000000  -0.000000  -0.000000   0.000000  -0.000000  -0.000000
    21  H    0.000000   0.000000  -0.000000  -0.000000  -0.000000   0.000000
    22  H    0.000000   0.000000  -0.000000  -0.000000  -0.000000   0.000000
    23  H    0.000000   0.000000  -0.000000  -0.000000  -0.000000   0.000000
    24  H   -0.000000   0.000000  -0.000000   0.000000  -0.000000   0.000000
    25  H   -0.000000  -0.000000   0.000000   0.000000   0.000000  -0.000000
    26  H    0.000000  -0.000000   0.000000  -0.000000   0.000000  -0.000000
    27  H   -0.000000   0.000000   0.000000   0.000000   0.000000  -0.000000
    28  H   -0.000000   0.000000   0.000000   0.000000  -0.000000  -0.000000
    29  H    0.000000   0.000000   0.000000   0.000000  -0.000000  -0.000000
               7          8          9         10         11         12
     1  C    0.372931  -0.042154   0.003781   0.000509   0.003781  -0.042157
     2  C   -0.042156   0.372934  -0.042141   0.003782   0.000508   0.003780
     3  C    0.003780  -0.042152   0.372925  -0.042184   0.003781   0.000509
     4  C    0.000509   0.003780  -0.042192   0.372916  -0.042188   0.003780
     5  C    0.003780   0.000509   0.003781  -0.042193   0.372925  -0.042164
     6  C   -0.042161   0.003780   0.000509   0.003782  -0.042154   0.372931
     7  H    0.545896  -0.004933  -0.000146   0.000015  -0.000146  -0.004935
     8  H   -0.004933   0.545850  -0.004934  -0.000146   0.000015  -0.000146
     9  H   -0.000146  -0.004934   0.546007  -0.004938  -0.000146   0.000015
    10  H    0.000015  -0.000146  -0.004938   0.546237  -0.004937  -0.000146
    11  H   -0.000146   0.000015  -0.000146  -0.004937   0.546046  -0.004935
    12  H   -0.004935  -0.000146   0.000015  -0.000146  -0.004935   0.545927
    13  C    0.000000  -0.000000  -0.000000   0.000000   0.000000  -0.000000
    14  C   -0.000000   0.000000   0.000000  -0.000000  -0.000000   0.000000
    15  C    0.000000  -0.000000  -0.000000   0.000000   0.000000  -0.000000
    16  C   -0.000000   0.000000  -0.000000  -0.000000  -0.000000   0.000000
    17  C    0.000000  -0.000000  -0.000000  -0.000000   0.000000  -0.000000
    18  H   -0.000000   0.000000   0.000000  -0.000000  -0.000000   0.000000
    19  H   -0.000000   0.000000  -0.000000   0.000000  -0.000000   0.000000
    20  H    0.000000   0.000000   0.000000  -0.000000   0.000000   0.000000
    21  H   -0.000000   0.000000   0.000000  -0.000000  -0.000000   0.000000
    22  H   -0.000000   0.000000  -0.000000   0.000000  -0.000000   0.000000
    23  H    0.000000  -0.000000  -0.000000   0.000000  -0.000000  -0.000000
    24  H   -0.000000   0.000000  -0.000000   0.000000  -0.000000   0.000000
    25  H    0.000000  -0.000000  -0.000000   0.000000  -0.000000  -0.000000
    26  H    0.000000  -0.000000   0.000000  -0.000000   0.000000  -0.000000
    27  H   -0.000000  -0.000000   0.000000   0.000000  -0.000000  -0.000000
    28  H   -0.000000   0.000000  -0.000000   0.000000  -0.000000   0.000000
    29  H   -0.000000   0.000000  -0.000000  -0.000000   0.000000   0.000000
              13         14         15         16         17         18
     1  C   -0.000000  -0.000000  -0.000000   0.000000  -0.000000   0.000000
     2  C   -0.000000   0.000000  -0.000000   0.000000  -0.000000   0.000000
     3  C    0.000000   0.000000   0.000000  -0.000000  -0.000000  -0.000000
     4  C    0.000000  -0.000000   0.000000  -0.000000  -0.000000  -0.000000
     5  C    0.000000  -0.000000   0.000000  -0.000000   0.000000  -0.000000
     6  C   -0.000000  -0.000000   0.000000   0.000000   0.000000   0.000000
     7  H    0.000000  -0.000000   0.000000  -0.000000   0.000000  -0.000000
     8  H   -0.000000   0.000000  -0.000000   0.000000  -0.000000   0.000000
     9  H   -0.000000   0.000000  -0.000000  -0.000000  -0.000000   0.000000
    10  H    0.000000  -0.000000   0.000000  -0.000000  -0.000000  -0.000000
    11  H    0.000000  -0.000000   0.000000  -0.000000   0.000000  -0.000000
    12  H   -0.000000   0.000000  -0.000000   0.000000  -0.000000   0.000000
    13  C    5.111647   0.382117  -0.045184   0.003331  -0.000110   0.381802
    14  C    0.382117   4.967255   0.402126  -0.040481   0.003331  -0.032784
    15  C   -0.045184   0.402126   4.986759   0.401955  -0.045168  -0.003756
    16  C    0.003331  -0.040481   0.401955   4.967118   0.382364   0.000020
    17  C   -0.000110   0.003331  -0.045168   0.382364   5.110785   0.000001
    18  H    0.381802  -0.032784  -0.003756   0.000020   0.000001   0.538551
    19  H    0.381864  -0.032747  -0.003749   0.000019   0.000001  -0.028497
    20  H    0.379842  -0.027358   0.003855  -0.000104   0.000001  -0.026829
    21  H   -0.035555   0.381644  -0.037777  -0.002874   0.000014   0.004572
    22  H   -0.035584   0.381639  -0.037788  -0.002850   0.000014  -0.003715
    23  H   -0.002423  -0.036997   0.376902  -0.036940  -0.002407   0.003974
    24  H   -0.002425  -0.036993   0.376898  -0.036919  -0.002395  -0.000216
    25  H    0.000015  -0.002896  -0.037750   0.382054  -0.035316   0.000005
    26  H    0.000015  -0.002903  -0.037891   0.381543  -0.035559   0.000004
    27  H    0.000001   0.000020  -0.003771  -0.032729   0.381887  -0.000001
    28  H    0.000001   0.000020  -0.003788  -0.032867   0.381632   0.000000
    29  H    0.000001  -0.000104   0.003843  -0.027202   0.380096   0.000000
              19         20         21         22         23         24
     1  C   -0.000000   0.000000   0.000000   0.000000   0.000000  -0.000000
     2  C    0.000000  -0.000000   0.000000   0.000000   0.000000   0.000000
     3  C    0.000000  -0.000000  -0.000000  -0.000000  -0.000000  -0.000000
     4  C    0.000000   0.000000  -0.000000  -0.000000  -0.000000   0.000000
     5  C    0.000000  -0.000000  -0.000000  -0.000000  -0.000000  -0.000000
     6  C    0.000000  -0.000000   0.000000   0.000000   0.000000   0.000000
     7  H   -0.000000   0.000000  -0.000000  -0.000000   0.000000  -0.000000
     8  H    0.000000   0.000000   0.000000   0.000000  -0.000000   0.000000
     9  H   -0.000000   0.000000   0.000000  -0.000000  -0.000000  -0.000000
    10  H    0.000000  -0.000000  -0.000000   0.000000   0.000000   0.000000
    11  H   -0.000000   0.000000  -0.000000  -0.000000  -0.000000  -0.000000
    12  H    0.000000   0.000000   0.000000   0.000000  -0.000000   0.000000
    13  C    0.381864   0.379842  -0.035555  -0.035584  -0.002423  -0.002425
    14  C   -0.032747  -0.027358   0.381644   0.381639  -0.036997  -0.036993
    15  C   -0.003749   0.003855  -0.037777  -0.037788   0.376902   0.376898
    16  C    0.000019  -0.000104  -0.002874  -0.002850  -0.036940  -0.036919
    17  C    0.000001   0.000001   0.000014   0.000014  -0.002407  -0.002395
    18  H   -0.028497  -0.026829   0.004572  -0.003715   0.003974  -0.000216
    19  H    0.538046  -0.026793  -0.003713   0.004569  -0.000216   0.003969
    20  H   -0.026793   0.531409  -0.002459  -0.002455  -0.000041  -0.000041
    21  H   -0.003713  -0.002459   0.568733  -0.034444   0.005193  -0.004420
    22  H    0.004569  -0.002455  -0.034444   0.568812  -0.004423   0.005195
    23  H   -0.000216  -0.000041   0.005193  -0.004423   0.576666  -0.035417
    24  H    0.003969  -0.000041  -0.004420   0.005195  -0.035417   0.576543
    25  H    0.000004   0.000002  -0.000252   0.004170  -0.004411   0.005171
    26  H    0.000005   0.000002   0.004182  -0.000255   0.005198  -0.004426
    27  H    0.000000   0.000000   0.000004   0.000005   0.003974  -0.000216
    28  H   -0.000001   0.000000   0.000005   0.000004  -0.000217   0.003977
    29  H    0.000000  -0.000000   0.000002   0.000002  -0.000041  -0.000042
              25         26         27         28         29
     1  C   -0.000000   0.000000  -0.000000  -0.000000   0.000000
     2  C   -0.000000  -0.000000   0.000000   0.000000   0.000000
     3  C    0.000000   0.000000   0.000000   0.000000   0.000000
     4  C    0.000000  -0.000000   0.000000   0.000000   0.000000
     5  C    0.000000   0.000000   0.000000  -0.000000  -0.000000
     6  C   -0.000000  -0.000000  -0.000000  -0.000000  -0.000000
     7  H    0.000000   0.000000  -0.000000  -0.000000  -0.000000
     8  H   -0.000000  -0.000000  -0.000000   0.000000   0.000000
     9  H   -0.000000   0.000000   0.000000  -0.000000  -0.000000
    10  H    0.000000  -0.000000   0.000000   0.000000  -0.000000
    11  H   -0.000000   0.000000  -0.000000  -0.000000   0.000000
    12  H   -0.000000  -0.000000  -0.000000   0.000000   0.000000
    13  C    0.000015   0.000015   0.000001   0.000001   0.000001
    14  C   -0.002896  -0.002903   0.000020   0.000020  -0.000104
    15  C   -0.037750  -0.037891  -0.003771  -0.003788   0.003843
    16  C    0.382054   0.381543  -0.032729  -0.032867  -0.027202
    17  C   -0.035316  -0.035559   0.381887   0.381632   0.380096
    18  H    0.000005   0.000004  -0.000001   0.000000   0.000000
    19  H    0.000004   0.000005   0.000000  -0.000001   0.000000
    20  H    0.000002   0.000002   0.000000   0.000000  -0.000000
    21  H   -0.000252   0.004182   0.000004   0.000005   0.000002
    22  H    0.004170  -0.000255   0.000005   0.000004   0.000002
    23  H   -0.004411   0.005198   0.003974  -0.000217  -0.000041
    24  H    0.005171  -0.004426  -0.000216   0.003977  -0.000042
    25  H    0.565853  -0.034337  -0.003708   0.004559  -0.002462
    26  H   -0.034337   0.569293   0.004568  -0.003721  -0.002445
    27  H   -0.003708   0.004568   0.538046  -0.028618  -0.026615
    28  H    0.004559  -0.003721  -0.028618   0.539588  -0.026837
    29  H   -0.002462  -0.002445  -0.026615  -0.026837   0.529385
 Mulliken charges:
               1
     1  C   -0.167478
     2  C   -0.167452
     3  C   -0.167433
     4  C   -0.167560
     5  C   -0.167534
     6  C   -0.167480
     7  H    0.167565
     8  H    0.167598
     9  H    0.167479
    10  H    0.167304
    11  H    0.167451
    12  H    0.167540
    13  C   -0.519353
    14  C   -0.304890
    15  C   -0.295717
    16  C   -0.305438
    17  C   -0.519172
    18  H    0.166869
    19  H    0.167239
    20  H    0.170969
    21  H    0.157144
    22  H    0.157104
    23  H    0.151625
    24  H    0.151757
    25  H    0.159301
    26  H    0.156727
    27  H    0.167153
    28  H    0.166262
    29  H    0.172419
 Sum of Mulliken charges =  -0.00000
 Mulliken charges with hydrogens summed into heavy atoms:
               1
     1  C    0.000087
     2  C    0.000147
     3  C    0.000046
     4  C   -0.000256
     5  C   -0.000083
     6  C    0.000060
    13  C   -0.014276
    14  C    0.009358
    15  C    0.007666
    16  C    0.010590
    17  C   -0.013338
 Electronic spatial extent (au):  <R**2>=           5953.9447
 Charge=             -0.0000 electrons
 Dipole moment (field-independent basis, Debye):
    X=              0.0496    Y=             -0.0085    Z=             -0.0700  Tot=              0.0862
 Quadrupole moment (field-independent basis, Debye-Ang):
   XX=            -70.2596   YY=            -67.5366   ZZ=            -66.9393
   XY=              2.3431   XZ=             -2.0527   YZ=              1.4292
 Traceless Quadrupole moment (field-independent basis, Debye-Ang):
   XX=             -2.0144   YY=              0.7086   ZZ=              1.3059
   XY=              2.3431   XZ=             -2.0527   YZ=              1.4292
 Octapole moment (field-independent basis, Debye-Ang**2):
  XXX=            -10.7675  YYY=             -3.3016  ZZZ=              0.6574  XYY=              7.8865
  XXY=             27.7498  XXZ=            -25.3302  XZZ=              9.3208  YZZ=             -0.1521
  YYZ=             -2.1059  XYZ=              6.8712
 Hexadecapole moment (field-independent basis, Debye-Ang**3):
 XXXX=          -7113.4540 YYYY=           -831.9184 ZZZZ=           -344.1101 XXXY=            105.2585
 XXXZ=           -105.2750 YYYX=             10.6345 YYYZ=              7.0571 ZZZX=             -8.0302
 ZZZY=              5.9180 XXYY=          -1286.7473 XXZZ=          -1197.6669 YYZZ=           -194.1345
 XXYZ=             35.0244 YYXZ=              0.9528 ZZXY=              0.3173
 N-N= 5.026308578001D+02 E-N=-1.998693923111D+03  KE= 4.255424996850D+02
 Calling FoFJK, ICntrl=      2127 FMM=F ISym2X=0 I1Cent= 0 IOpClX= 0 NMat=1 NMatS=1 NMatT=0.
 ***** Axes restored to original set *****
 -------------------------------------------------------------------
 Center     Atomic                   Forces (Hartrees/Bohr)
 Number     Number              X              Y              Z
 -------------------------------------------------------------------
      1        6          -0.000097993   -0.000067981   -0.000002524
      2        6          -0.000106382    0.000057099    0.000004564
      3        6           0.000005335    0.000164973    0.000010600
      4        6           0.000099306    0.000072991    0.000029221
      5        6           0.000114759   -0.000049369    0.000015749
      6        6           0.000003562   -0.000159739    0.000010741
      7        1           0.000001000   -0.000005265    0.000002587
      8        1           0.000002815   -0.000008292    0.000003031
      9        1          -0.000010846   -0.000007698    0.000006422
     10        1           0.000006952    0.000010809   -0.000002930
     11        1           0.000002465    0.000005936   -0.000001744
     12        1           0.000009401    0.000009068   -0.000002919
     13        6          -0.000040068   -0.000087688    0.000016733
     14        6           0.000004927    0.000152136   -0.000012612
     15        6          -0.000031415   -0.000186160    0.000034311
     16        6          -0.000016574    0.000069290   -0.000111920
     17        6           0.000018623   -0.000066122    0.000016337
     18        1           0.000014648    0.000029077   -0.000008534
     19        1           0.000019749    0.000020494   -0.000007031
     20        1           0.000022732    0.000015437    0.000001840
     21        1          -0.000005369   -0.000027261   -0.000012186
     22        1          -0.000023903   -0.000034911    0.000013050
     23        1          -0.000002492    0.000029581   -0.000013282
     24        1           0.000023304    0.000047994    0.000004356
     25        1          -0.000053684    0.000011690    0.000034306
     26        1           0.000014857   -0.000020214    0.000012443
     27        1          -0.000030889   -0.000039270   -0.000014792
     28        1           0.000003258    0.000039199    0.000037942
     29        1           0.000051921    0.000024197   -0.000063762
 -------------------------------------------------------------------
 Cartesian Forces:  Max     0.000186160 RMS     0.000051902

 GradGradGradGradGradGradGradGradGradGradGradGradGradGradGradGradGradGrad
 Berny optimization.
 FormGI is forming the generalized inverse of G from B-inverse, IUseBI=4.
 Internal  Forces:  Max     0.000265508 RMS     0.000047359
 Search for a local minimum.
 Step number   1 out of a maximum of   10
 All quantities printed in internal units (Hartrees-Bohrs-Radians)
 Mixed Optimization -- En-DIIS/RFO-DIIS
 Second derivative matrix not updated -- first step.
 ITU=  0
     Eigenvalues ---    0.00136   0.00230   0.00230   0.00266   0.00375
     Eigenvalues ---    0.00375   0.00388   0.00388   0.01826   0.02172
     Eigenvalues ---    0.02172   0.02172   0.02172   0.02172   0.02172
     Eigenvalues ---    0.02172   0.02172   0.03344   0.03450   0.03499
     Eigenvalues ---    0.04675   0.04811   0.04827   0.05470   0.05470
     Eigenvalues ---    0.05537   0.05537   0.06712   0.08412   0.08486
     Eigenvalues ---    0.11900   0.12259   0.12314   0.16000   0.16000
     Eigenvalues ---    0.16000   0.16000   0.16000   0.16000   0.16000
     Eigenvalues ---    0.16000   0.16000   0.16000   0.16000   0.16000
     Eigenvalues ---    0.16000   0.16000   0.18266   0.21897   0.21902
     Eigenvalues ---    0.22000   0.22000   0.22000   0.29463   0.29463
     Eigenvalues ---    0.29554   0.29554   0.33563   0.33564   0.33712
     Eigenvalues ---    0.33712   0.33712   0.33712   0.33937   0.33937
     Eigenvalues ---    0.33937   0.33937   0.34069   0.34069   0.35088
     Eigenvalues ---    0.35088   0.35089   0.35089   0.35089   0.35089
     Eigenvalues ---    0.42292   0.42294   0.46680   0.46680   0.46682
     Eigenvalues ---    0.46684
 RFO step:  Lambda=-2.11749750D-05 EMin= 1.36159030D-03
 Linear search not attempted -- first point.
 Iteration  1 RMS(Cart)=  0.07994097 RMS(Int)=  0.00117833
 Iteration  2 RMS(Cart)=  0.00278879 RMS(Int)=  0.00000053
 Iteration  3 RMS(Cart)=  0.00000235 RMS(Int)=  0.00000010
 Iteration  4 RMS(Cart)=  0.00000000 RMS(Int)=  0.00000010
 Variable       Old X    -DE/DX   Delta X   Delta X   Delta X     New X
                                 (Linear)    (Quad)   (Total)
    R1        2.63372   0.00015   0.00000   0.00032   0.00032   2.63403
    R2        2.63367   0.00012   0.00000   0.00025   0.00025   2.63392
    R3        2.05531   0.00000   0.00000   0.00001   0.00001   2.05532
    R4        2.63372   0.00014   0.00000   0.00031   0.00031   2.63402
    R5        2.05531  -0.00001   0.00000  -0.00002  -0.00002   2.05529
    R6        2.63367   0.00013   0.00000   0.00028   0.00028   2.63395
    R7        2.05532  -0.00001   0.00000  -0.00002  -0.00002   2.05530
    R8        2.63371   0.00012   0.00000   0.00025   0.00025   2.63397
    R9        2.05531  -0.00003   0.00000  -0.00007  -0.00007   2.05524
   R10        2.63372   0.00011   0.00000   0.00023   0.00023   2.63394
   R11        2.05531  -0.00000   0.00000  -0.00000  -0.00000   2.05530
   R12        2.05532  -0.00001   0.00000  -0.00003  -0.00003   2.05529
   R13       10.59529  -0.00008   0.00000  -0.05498  -0.05498  10.54031
   R14        2.88862  -0.00000   0.00000  -0.00001  -0.00001   2.88861
   R15        2.07437   0.00002   0.00000   0.00007   0.00007   2.07443
   R16        2.07437   0.00001   0.00000   0.00002   0.00002   2.07439
   R17        2.07214   0.00001   0.00000   0.00004   0.00004   2.07218
   R18        2.89047  -0.00003   0.00000  -0.00011  -0.00011   2.89036
   R19        2.07819   0.00001   0.00000   0.00002   0.00002   2.07821
   R20        2.07819   0.00001   0.00000   0.00003   0.00003   2.07822
   R21        2.89047  -0.00004   0.00000  -0.00015  -0.00015   2.89032
   R22        2.08073   0.00003   0.00000   0.00008   0.00008   2.08081
   R23        2.08073   0.00003   0.00000   0.00010   0.00010   2.08083
   R24        2.88862  -0.00006   0.00000  -0.00019  -0.00019   2.88843
   R25        2.07818  -0.00011   0.00000  -0.00033  -0.00033   2.07786
   R26        2.07819   0.00002   0.00000   0.00006   0.00006   2.07825
   R27        2.07437  -0.00001   0.00000  -0.00002  -0.00002   2.07434
   R28        2.07437   0.00005   0.00000   0.00016   0.00016   2.07453
   R29        2.07214  -0.00006   0.00000  -0.00017  -0.00017   2.07197
    A1        2.09440   0.00001   0.00000   0.00004   0.00004   2.09443
    A2        2.09435  -0.00000   0.00000  -0.00000  -0.00000   2.09434
    A3        2.09444  -0.00001   0.00000  -0.00003  -0.00003   2.09441
    A4        2.09437   0.00002   0.00000   0.00009   0.00009   2.09446
    A5        2.09445  -0.00001   0.00000  -0.00006  -0.00006   2.09439
    A6        2.09436  -0.00000   0.00000  -0.00002  -0.00002   2.09434
    A7        2.09442  -0.00004   0.00000  -0.00017  -0.00017   2.09425
    A8        2.09445   0.00001   0.00000   0.00003   0.00003   2.09447
    A9        2.09432   0.00003   0.00000   0.00014   0.00014   2.09446
   A10        2.09440   0.00002   0.00000   0.00007   0.00007   2.09447
   A11        2.09444   0.00009   0.00000   0.00057   0.00057   2.09500
   A12        2.09435  -0.00011   0.00000  -0.00064  -0.00064   2.09371
   A13        2.09437   0.00002   0.00000   0.00009   0.00009   2.09446
   A14        2.09445  -0.00002   0.00000  -0.00007  -0.00007   2.09438
   A15        2.09436  -0.00001   0.00000  -0.00002  -0.00002   2.09434
   A16        2.09441  -0.00002   0.00000  -0.00011  -0.00011   2.09430
   A17        2.09432   0.00002   0.00000   0.00010   0.00010   2.09442
   A18        2.09445   0.00000   0.00000   0.00002   0.00002   2.09446
   A19        1.66130  -0.00027   0.00000  -0.00166  -0.00166   1.65964
   A20        1.93781   0.00002   0.00000   0.00010   0.00010   1.93791
   A21        1.93781   0.00003   0.00000   0.00016   0.00016   1.93797
   A22        1.94612   0.00002   0.00000   0.00016   0.00016   1.94628
   A23        1.87678  -0.00003   0.00000  -0.00022  -0.00022   1.87656
   A24        1.88124  -0.00002   0.00000  -0.00011  -0.00011   1.88113
   A25        1.88123  -0.00002   0.00000  -0.00014  -0.00014   1.88110
   A26        1.97152   0.00008   0.00000   0.00049   0.00049   1.97201
   A27        1.91202  -0.00002   0.00000   0.00002   0.00002   1.91204
   A28        1.91202  -0.00000   0.00000   0.00014   0.00014   1.91216
   A29        1.90614  -0.00002   0.00000  -0.00011  -0.00011   1.90603
   A30        1.90614  -0.00004   0.00000  -0.00018  -0.00018   1.90596
   A31        1.85217  -0.00001   0.00000  -0.00043  -0.00043   1.85175
   A32        1.97940  -0.00004   0.00000  -0.00015  -0.00015   1.97925
   A33        1.90754   0.00002   0.00000  -0.00005  -0.00005   1.90749
   A34        1.90754   0.00000   0.00000   0.00007   0.00007   1.90761
   A35        1.90754   0.00000   0.00000  -0.00011  -0.00011   1.90743
   A36        1.90754   0.00004   0.00000   0.00046   0.00046   1.90800
   A37        1.84981  -0.00002   0.00000  -0.00023  -0.00023   1.84957
   A38        1.97152   0.00007   0.00000   0.00039   0.00039   1.97191
   A39        1.90614  -0.00003   0.00000  -0.00047  -0.00047   1.90567
   A40        1.90614  -0.00003   0.00000  -0.00009  -0.00009   1.90605
   A41        1.91202  -0.00004   0.00000  -0.00038  -0.00038   1.91164
   A42        1.91202   0.00001   0.00000   0.00043   0.00043   1.91246
   A43        1.85217   0.00002   0.00000   0.00010   0.00010   1.85228
   A44        1.93781   0.00000   0.00000  -0.00012  -0.00012   1.93769
   A45        1.93781   0.00002   0.00000   0.00030   0.00030   1.93811
   A46        1.94612  -0.00002   0.00000  -0.00018  -0.00018   1.94594
   A47        1.87678   0.00001   0.00000   0.00017   0.00017   1.87695
   A48        1.88124  -0.00003   0.00000  -0.00055  -0.00055   1.88068
   A49        1.88123   0.00002   0.00000   0.00038   0.00038   1.88162
   A50        2.51085  -0.00014   0.00000  -0.00088  -0.00088   2.50997
    D1       -0.00000   0.00000   0.00000   0.00011   0.00011   0.00011
    D2        3.14157   0.00001   0.00000   0.00028   0.00028  -3.14133
    D3       -3.14158  -0.00000   0.00000  -0.00012  -0.00012   3.14149
    D4       -0.00001   0.00000   0.00000   0.00006   0.00006   0.00005
    D5        0.00000  -0.00000   0.00000  -0.00012  -0.00012  -0.00012
    D6        3.14159  -0.00000   0.00000  -0.00017  -0.00017   3.14142
    D7        3.14158   0.00000   0.00000   0.00011   0.00011  -3.14150
    D8       -0.00001   0.00000   0.00000   0.00005   0.00005   0.00004
    D9        0.00000   0.00000   0.00000   0.00014   0.00014   0.00014
   D10        3.14158   0.00001   0.00000   0.00040   0.00040  -3.14120
   D11       -3.14157  -0.00000   0.00000  -0.00004  -0.00004   3.14158
   D12        0.00001   0.00000   0.00000   0.00023   0.00023   0.00024
   D13       -0.00000  -0.00001   0.00000  -0.00038  -0.00038  -0.00038
   D14        3.14159   0.00002   0.00000   0.00110   0.00111  -3.14049
   D15       -3.14158  -0.00001   0.00000  -0.00064  -0.00064   3.14097
   D16        0.00001   0.00002   0.00000   0.00084   0.00084   0.00085
   D17        0.00000   0.00001   0.00000   0.00037   0.00037   0.00037
   D18       -3.14158   0.00001   0.00000   0.00050   0.00050  -3.14108
   D19       -3.14159  -0.00002   0.00000  -0.00111  -0.00111   3.14048
   D20        0.00001  -0.00002   0.00000  -0.00098  -0.00098  -0.00097
   D21        1.59936  -0.00002   0.00000  -0.00176  -0.00176   1.59760
   D22       -1.54224   0.00001   0.00000  -0.00028  -0.00028  -1.54252
   D23       -0.00000  -0.00000   0.00000  -0.00012  -0.00012  -0.00012
   D24       -3.14159  -0.00000   0.00000  -0.00006  -0.00006   3.14153
   D25        3.14158  -0.00000   0.00000  -0.00025  -0.00025   3.14133
   D26       -0.00001  -0.00000   0.00000  -0.00020  -0.00020  -0.00020
   D27       -1.96086  -0.00017   0.00000  -0.07355  -0.07355  -2.03441
   D28       -1.04347   0.00000   0.00000  -0.00010  -0.00010  -1.04357
   D29        3.11066  -0.00001   0.00000  -0.00032  -0.00032   3.11034
   D30        1.08559   0.00001   0.00000   0.00011   0.00011   1.08570
   D31        1.04348  -0.00000   0.00000  -0.00020  -0.00020   1.04328
   D32       -1.08559  -0.00001   0.00000  -0.00041  -0.00041  -1.08600
   D33       -3.11065   0.00001   0.00000   0.00001   0.00001  -3.11064
   D34       -3.14159   0.00000   0.00000  -0.00015  -0.00015   3.14144
   D35        1.01253  -0.00001   0.00000  -0.00037  -0.00037   1.01217
   D36       -1.01253   0.00001   0.00000   0.00006   0.00006  -1.01247
   D37       -3.14159  -0.00001   0.00000  -0.00103  -0.00103   3.14056
   D38        1.00859  -0.00000   0.00000  -0.00075  -0.00075   1.00784
   D39       -1.00859   0.00001   0.00000  -0.00048  -0.00048  -1.00908
   D40       -1.00923   0.00000   0.00000  -0.00075  -0.00075  -1.00998
   D41        3.14096   0.00002   0.00000  -0.00047  -0.00047   3.14049
   D42        1.12377   0.00003   0.00000  -0.00020  -0.00020   1.12357
   D43        1.00923  -0.00004   0.00000  -0.00142  -0.00142   1.00781
   D44       -1.12377  -0.00002   0.00000  -0.00114  -0.00114  -1.12491
   D45       -3.14095  -0.00001   0.00000  -0.00087  -0.00087   3.14136
   D46        3.14159   0.00002   0.00000   0.00043   0.00043  -3.14116
   D47       -1.00923  -0.00000   0.00000  -0.00013  -0.00013  -1.00936
   D48        1.00923  -0.00001   0.00000  -0.00032  -0.00032   1.00891
   D49       -1.00859   0.00002   0.00000   0.00018   0.00018  -1.00841
   D50        1.12377  -0.00001   0.00000  -0.00038  -0.00038   1.12339
   D51       -3.14096  -0.00002   0.00000  -0.00057  -0.00057  -3.14153
   D52        1.00859   0.00002   0.00000   0.00010   0.00010   1.00869
   D53        3.14096  -0.00001   0.00000  -0.00046  -0.00046   3.14049
   D54       -1.12377  -0.00002   0.00000  -0.00065  -0.00065  -1.12443
   D55        1.04347   0.00001   0.00000  -0.00004  -0.00004   1.04344
   D56       -1.04347  -0.00001   0.00000  -0.00037  -0.00037  -1.04385
   D57        3.14159  -0.00004   0.00000  -0.00094  -0.00094   3.14065
   D58       -1.08559   0.00003   0.00000   0.00058   0.00058  -1.08501
   D59        3.11065   0.00001   0.00000   0.00024   0.00024   3.11089
   D60        1.01253  -0.00002   0.00000  -0.00032  -0.00032   1.01221
   D61       -3.11065   0.00002   0.00000   0.00043   0.00043  -3.11023
   D62        1.08559   0.00000   0.00000   0.00009   0.00009   1.08568
   D63       -1.01253  -0.00003   0.00000  -0.00047  -0.00047  -1.01301
   D64       -1.24662  -0.00008   0.00000  -0.02035  -0.02035  -1.26697
   D65        0.92114  -0.00003   0.00000  -0.02043  -0.02043   0.90070
   D66        2.98383  -0.00003   0.00000  -0.02006  -0.02006   2.96377
         Item               Value     Threshold  Converged?
 Maximum Force            0.000266     0.000450     YES
 RMS     Force            0.000047     0.000300     YES
 Maximum Displacement     0.267049     0.001800     NO 
 RMS     Displacement     0.081318     0.001200     NO 
 Predicted change in Energy=-1.069114D-05
 GradGradGradGradGradGradGradGradGradGradGradGradGradGradGradGradGradGrad

                          Input orientation:                          
 ---------------------------------------------------------------------
 Center     Atomic      Atomic             Coordinates (Angstroms)
 Number     Number       Type             X           Y           Z
 ---------------------------------------------------------------------
      1          6           0       -1.168492   -0.759356    0.009348
      2          6           0       -1.237629    0.632623    0.031470
      3          6           0       -0.066672    1.388746    0.030962
      4          6           0        1.173377    0.752736    0.008160
      5          6           0        1.242502   -0.639212   -0.013675
      6          6           0        0.071577   -1.395306   -0.013154
      7          1           0       -2.082250   -1.349253    0.009846
      8          1           0       -2.205295    1.128816    0.049273
      9          1           0       -0.120597    2.474884    0.048589
     10          1           0        2.087492    1.342004    0.008784
     11          1           0        2.210179   -1.135418   -0.030988
     12          1           0        0.125515   -2.481448   -0.030250
     13          6           0        6.510353    2.762931    6.470442
     14          6           0        5.210397    1.958856    6.457882
     15          6           0        3.961685    2.842107    6.457043
     16          6           0        2.655180    2.046999    6.443061
     17          6           0        1.413818    2.938799    6.441722
     18          1           0        6.579081    3.414606    5.589740
     19          1           0        6.569315    3.402830    7.360408
     20          1           0        7.389000    2.106881    6.470951
     21          1           0        5.181483    1.292281    7.332109
     22          1           0        5.190975    1.304154    5.574464
     23          1           0        3.989791    3.510947    5.582785
     24          1           0        3.979428    3.498198    7.341185
     25          1           0        2.639273    1.393555    5.558878
     26          1           0        2.628443    1.379547    7.316714
     27          1           0        1.400430    3.593735    5.560918
     28          1           0        1.388686    3.580835    7.331839
     29          1           0        0.492355    2.344688    6.430661
 ---------------------------------------------------------------------
                    Distance matrix (angstroms):
                    1          2          3          4          5
     1  C    0.000000
     2  C    1.393870   0.000000
     3  C    2.414294   1.393866   0.000000
     4  C    2.787611   2.414109   1.393826   0.000000
     5  C    2.414096   2.787590   2.414238   1.393834   0.000000
     6  C    1.393812   2.414230   2.787831   2.414228   1.393823
     7  H    1.087627   2.154457   3.399947   3.875238   3.399808
     8  H    2.154471   1.087613   2.154438   3.399786   3.875202
     9  H    3.399990   2.154525   1.087619   2.154483   3.399928
    10  H    3.875197   3.400025   2.154786   1.087587   2.154003
    11  H    3.399775   3.875210   3.399896   2.154441   1.087620
    12  H    2.154443   3.399913   3.875446   3.399916   2.154476
    13  C   10.635643  10.297078   9.306587   8.618892   9.020455
    14  C    9.469028   9.199713   8.335334   7.703972   8.023416
    15  C    8.992332   8.555857   7.722334   7.329955   7.834777
    16  C    7.993044   7.633015   6.996912   6.728953   7.134481
    17  C    7.856214   7.310263   6.759612   6.799074   7.382660
    18  H   10.420538   9.986728   8.897761   8.213478   8.735603
    19  H   11.455808  11.060550  10.090275   9.497089   9.954403
    20  H   11.099472  10.865499   9.878068   9.068370   9.347236
    21  H    9.907281   9.743689   8.992173   8.366376   8.556096
    22  H    8.698931   8.514851   7.640708   6.886864   7.112974
    23  H    8.712437   8.150323   7.195927   6.827617   7.489444
    24  H    9.918855   9.426619   8.617429   8.317737   8.871466
    25  H    7.066214   6.794235   6.154674   5.776675   6.093969
    26  H    8.508185   8.281256   7.768264   7.478307   7.728572
    27  H    7.507908   6.804582   6.131458   6.241470   7.001348
    28  H    8.887930   8.299692   7.760550   7.853712   8.472706
    29  H    7.323029   6.846434   6.494804   6.651813   7.141138
                    6          7          8          9         10
     6  C    0.000000
     7  H    2.154442   0.000000
     8  H    3.399887   2.481436   0.000000
     9  H    3.875449   4.298094   2.481504   0.000000
    10  H    3.399597   4.962824   4.298268   2.482068   0.000000
    11  H    2.154409   4.297946   4.962822   4.298038   2.480777
    12  H    1.087615   2.481471   4.298023   4.963064   4.297634
    13  C   10.039212  11.510091  10.948254   9.235403   7.958251
    14  C    8.918082  10.281219   9.836245   8.352534   7.191933
    15  C    8.657485   9.780747   9.056850   7.607113   6.880621
    16  C    7.759327   8.681245   8.083798   6.984074   6.497630
    17  C    7.889961   8.484038   7.565541   6.591039   6.662303
    18  H    9.842523  11.351133  10.634230   8.744890   7.457688
    19  H   10.936733  12.307016  11.645497   9.953829   8.853254
    20  H   10.385258  11.974778  11.586416   9.888185   8.393486
    21  H    9.342758  10.646833  10.374531   9.086268   7.950241
    22  H    8.044674   9.534429   9.233812   7.753625   6.372584
    23  H    8.410602   9.568117   8.641376   6.971086   6.276347
    24  H    9.659399  10.676622   9.850723   8.428484   7.873544
    25  H    6.739313   7.785084   7.341367   6.256951   5.577693
    26  H    8.244048   9.111932   8.731757   7.847460   7.328020
    27  H    7.597805   8.208324   7.032446   5.826759   6.030633
    28  H    8.969151   9.484975   8.483211   7.519761   7.689462
    29  H    7.462396   7.842235   7.034043   6.412761   6.692558
                   11         12         13         14         15
    11  H    0.000000
    12  H    2.481455   0.000000
    13  C    8.715344  10.513262   0.000000
    14  C    7.789819   9.363129   1.528587   0.000000
    15  C    7.809163   9.227210   2.549932   1.529514   0.000000
    16  C    7.227663   8.295166   3.921182   2.556780   1.529493
    17  C    7.689565   8.539626   5.099650   3.921041   2.549748
    18  H    8.448822  10.392124   1.097743   2.178571   2.816155
    19  H    9.707240  11.435433   1.097718   2.178594   2.816063
    20  H    8.922326  10.773884   1.096550   2.183665   3.505315
    21  H    8.302865   9.695781   2.161291   1.099741   2.157685
    22  H    6.801305   8.449999   2.161381   1.099746   2.157637
    23  H    7.501344   9.074556   2.775013   2.159782   1.101120
    24  H    8.885358  10.244358   2.775678   2.159880   1.101126
    25  H    6.150319   7.250723   4.206115   2.781807   2.157262
    26  H    7.777450   8.668899   4.207036   2.782028   2.157696
    27  H    7.368174   8.354305   5.256308   4.241841   2.815673
    28  H    8.782319   9.620147   5.257608   4.242651   2.816258
    29  H    7.537570   8.072764   6.032645   4.733870   3.504907
                   16         17         18         19         20
    16  C    0.000000
    17  C    1.528492   0.000000
    18  H    4.242111   5.256635   0.000000
    19  H    4.242672   5.257230   1.770734   0.000000
    20  H    4.734281   6.032888   1.772751   1.772710   0.000000
    21  H    2.782483   4.207031   3.081135   2.526124   2.505653
    22  H    2.781463   4.206081   2.526079   3.081211   2.505868
    23  H    2.159723   2.775025   2.591091   3.134578   3.783499
    24  H    2.160149   2.775666   3.135720   2.591714   3.783946
    25  H    1.099555   2.160771   4.428056   4.767382   4.888825
    26  H    1.099763   2.161526   4.767750   4.430131   4.889502
    27  H    2.178294   1.097696   5.181827   5.476494   6.237135
    28  H    2.178666   1.097794   5.477475   5.183765   6.238383
    29  H    2.183250   1.096441   6.236995   6.238072   6.900861
                   21         22         23         24         25
    21  H    0.000000
    22  H    1.757711   0.000000
    23  H    3.066389   2.512538   0.000000
    24  H    2.512188   3.066428   1.758477   0.000000
    25  H    3.101199   2.553315   2.511536   3.066294   0.000000
    26  H    2.554577   3.099628   3.066373   2.512856   1.757926
    27  H    4.767616   4.428385   2.590776   3.135237   2.524980
    28  H    4.429761   4.767499   3.135254   2.592076   3.080836
    29  H    4.889590   4.888028   3.783003   3.784088   2.504779
                   26         27         28         29
    26  H    0.000000
    27  H    3.081147   0.000000
    28  H    2.526439   1.771008   0.000000
    29  H    2.505885   1.772335   1.773018   0.000000
 Stoichiometry    C11H18
 Framework group  C1[X(C11H18)]
 Deg. of freedom    81
 Full point group                 C1      NOp   1
 Largest Abelian subgroup         C1      NOp   1
 Largest concise Abelian subgroup C1      NOp   1
                         Standard orientation:                         
 ---------------------------------------------------------------------
 Center     Atomic      Atomic             Coordinates (Angstroms)
 Number     Number       Type             X           Y           Z
 ---------------------------------------------------------------------
      1          6           0        4.860308    0.453810   -0.728213
      2          6           0        4.441777    1.002525    0.482826
      3          6           0        3.557967    0.298226    1.298734
      4          6           0        3.092895   -0.954882    0.903539
      5          6           0        3.511202   -1.503449   -0.307604
      6          6           0        4.394975   -0.799160   -1.123488
      7          1           0        5.549867    1.003505   -1.364827
      8          1           0        4.804721    1.980346    0.791111
      9          1           0        3.231099    0.726526    2.243526
     10          1           0        2.402471   -1.504588    1.539135
     11          1           0        3.147877   -2.481064   -0.616119
     12          1           0        4.721427   -1.227234   -2.068521
     13          6           0       -5.474510   -1.771447    0.436547
     14          6           0       -4.494361   -0.983192   -0.432097
     15          6           0       -4.084329    0.352066    0.191098
     16          6           0       -3.102302    1.148190   -0.669809
     17          6           0       -2.698636    2.480122   -0.037908
     18          1           0       -5.038004   -1.996362    1.418339
     19          1           0       -6.396403   -1.200659    0.607718
     20          1           0       -5.752050   -2.722989   -0.032453
     21          1           0       -4.943105   -0.799168   -1.419110
     22          1           0       -3.594644   -1.588790   -0.614314
     23          1           0       -3.635829    0.169479    1.180023
     24          1           0       -4.984118    0.959852    0.374003
     25          1           0       -2.204331    0.539787   -0.850124
     26          1           0       -3.551528    1.329859   -1.657062
     27          1           0       -2.217819    2.324018    0.936455
     28          1           0       -3.574969    3.121077    0.124476
     29          1           0       -1.994573    3.029546   -0.674000
 ---------------------------------------------------------------------
 Rotational constants (GHZ):           1.4335806           0.1960014           0.1839367
 Standard basis: 6-31(d') (6D, 7F)
 There are   201 symmetry adapted cartesian basis functions of A   symmetry.
 There are   201 symmetry adapted basis functions of A   symmetry.
   201 basis functions,   380 primitive gaussians,   201 cartesian basis functions
    42 alpha electrons       42 beta electrons
       nuclear repulsion energy       502.7815978400 Hartrees.
 NAtoms=   29 NActive=   29 NUniq=   29 SFac= 1.00D+00 NAtFMM=   60 NAOKFM=F Big=F
 Integral buffers will be    131072 words long.
 Raffenetti 2 integral format.
 Two-electron integral symmetry is turned on.
 Nuclear repulsion after empirical dispersion term =      502.7685675555 Hartrees.
 One-electron integrals computed using PRISM.
 NBasis=   201 RedAO= T EigKep=  4.01D-04  NBF=   201
 NBsUse=   201 1.00D-06 EigRej= -1.00D+00 NBFU=   201
 Initial guess from the checkpoint file:  "./chk/0-8_0297.chk"
 B after Tr=     0.000000    0.000000   -0.000000
         Rot=    0.999794    0.020296   -0.000346   -0.000075 Ang=   2.33 deg.
 ExpMin= 1.61D-01 ExpMax= 3.05D+03 ExpMxC= 4.57D+02 IAcc=2 IRadAn=         4 AccDes= 0.00D+00
 Harris functional with IExCor= 4639 and IRadAn=       4 diagonalized for initial guess.
 HarFok:  IExCor= 4639 AccDes= 0.00D+00 IRadAn=         4 IDoV= 1 UseB2=F ITyADJ=14
 ICtDFT=  3500011 ScaDFX=  1.000000  1.000000  1.000000  1.000000
 FoFCou: FMM=F IPFlag=           0 FMFlag=      100000 FMFlg1=           0
         NFxFlg=           0 DoJE=T BraDBF=F KetDBF=T FulRan=T
         wScrn=  0.000000 ICntrl=       500 IOpCl=  0 I1Cent=   200000004 NGrid=           0
         NMat0=    1 NMatS0=      1 NMatT0=    0 NMatD0=    1 NMtDS0=    0 NMtDT0=    0
 Petite list used in FoFCou.
 Requested convergence on RMS density matrix=1.00D-08 within 128 cycles.
 Requested convergence on MAX density matrix=1.00D-06.
 Requested convergence on             energy=1.00D-06.
 No special actions if energy rises.
 Integral accuracy reduced to 1.0D-05 until final iterations.
 Initial convergence to 1.0D-05 achieved.  Increase integral accuracy.
 SCF Done:  E(RwB97XD) =  -429.870732740     A.U. after   10 cycles
[...]
     16          6           0       -2.685835    1.134217   -0.662949
     17          6           0       -2.228077    2.450958   -0.013025
     18          1           0       -4.768569   -1.956266    1.356017
     19          1           0       -6.083171   -1.098083    0.543969
     20          1           0       -5.489709   -2.633626   -0.109844
     21          1           0       -4.594207   -0.729161   -1.458182
     22          1           0       -3.288049   -1.579149   -0.649230
     23          1           0       -3.290499    0.161068    1.172965
     24          1           0       -4.588766    1.007879    0.359319
     25          1           0       -1.797893    0.473579   -0.841149
     26          1           0       -3.117490    1.339275   -1.649698
     27          1           0       -1.763676    2.265684    0.967906
     28          1           0       -3.066756    3.123165    0.144493
     29          1           0       -1.484465    2.979036   -0.643400
 ---------------------------------------------------------------------
 Rotational constants (GHZ):           1.4930040           0.2352225           0.2172583

 **********************************************************************

            Population analysis using the SCF density.

 **********************************************************************

 Orbital symmetries:
       Occupied  (A) (A) (A) (A) (A) (A) (A) (A) (A) (A) (A) (A)
                 (A) (A) (A) (A) (A) (A) (A) (A) (A) (A) (A) (A)
                 (A) (A) (A) (A) (A) (A) (A) (A) (A) (A) (A) (A)
                 (A) (A) (A) (A) (A) (A)
       Virtual   (A) (A) (A) (A) (A) (A) (A) (A) (A) (A) (A) (A)
                 (A) (A) (A) (A) (A) (A) (A) (A) (A) (A) (A) (A)
                 (A) (A) (A) (A) (A) (A) (A) (A) (A) (A) (A) (A)
                 (A) (A) (A) (A) (A) (A) (A) (A) (A) (A) (A) (A)
                 (A) (A) (A) (A) (A) (A) (A) (A) (A) (A) (A) (A)
                 (A) (A) (A) (A) (A) (A) (A) (A) (A) (A) (A) (A)
                 (A) (A) (A) (A) (A) (A) (A) (A) (A) (A) (A) (A)
                 (A) (A) (A) (A) (A) (A) (A) (A) (A) (A) (A) (A)
                 (A) (A) (A) (A) (A) (A) (A) (A) (A) (A) (A) (A)
                 (A) (A) (A) (A) (A) (A) (A) (A) (A) (A) (A) (A)
                 (A) (A) (A) (A) (A) (A) (A) (A) (A) (A) (A) (A)
                 (A) (A) (A) (A) (A) (A) (A) (A) (A) (A) (A) (A)
                 (A) (A) (A) (A) (A) (A) (A) (A) (A) (A) (A) (A)
                 (A) (A) (A)
 The electronic state is 1-A.
 Alpha  occ. eigenvalues --  -10.29003 -10.28948 -10.28926 -10.28875 -10.28852
 Alpha  occ. eigenvalues --  -10.28792 -10.28780 -10.28564 -10.28328 -10.27974
 Alpha  occ. eigenvalues --  -10.27856  -0.96784  -0.89341  -0.84835  -0.84646
 Alpha  occ. eigenvalues --   -0.84148  -0.76531  -0.69418  -0.69339  -0.68516
 Alpha  occ. eigenvalues --   -0.66168  -0.61779  -0.55667  -0.53597  -0.53498
 Alpha  occ. eigenvalues --   -0.51625  -0.51117  -0.50403  -0.50188  -0.48099
 Alpha  occ. eigenvalues --   -0.47166  -0.46266  -0.45468  -0.42795  -0.41710
 Alpha  occ. eigenvalues --   -0.41595  -0.40924  -0.40054  -0.39492  -0.38619
 Alpha  occ. eigenvalues --   -0.32827  -0.32638
 Alpha virt. eigenvalues --    0.08338   0.08463   0.17003   0.17666   0.19482
 Alpha virt. eigenvalues --    0.21059   0.21951   0.22932   0.23043   0.23790
 Alpha virt. eigenvalues --    0.25938   0.26061   0.26218   0.27005   0.27585
 Alpha virt. eigenvalues --    0.27648   0.28324   0.28403   0.28514   0.28652
 Alpha virt. eigenvalues --    0.29072   0.30992   0.33539   0.35914   0.36027
 Alpha virt. eigenvalues --    0.39858   0.40065   0.42214   0.42405   0.54851
 Alpha virt. eigenvalues --    0.57257   0.59460   0.59758   0.60914   0.61374
 Alpha virt. eigenvalues --    0.63417   0.64243   0.65382   0.67304   0.67379
 Alpha virt. eigenvalues --    0.67408   0.68087   0.68133   0.68222   0.68427
 Alpha virt. eigenvalues --    0.68827   0.68944   0.69335   0.73426   0.74062
 Alpha virt. eigenvalues --    0.75808   0.75840   0.77065   0.79954   0.83736
 Alpha virt. eigenvalues --    0.84494   0.86183   0.90484   0.90569   0.90814
 Alpha virt. eigenvalues --    0.92106   0.92129   0.92793   0.93976   0.95695
 Alpha virt. eigenvalues --    0.96016   0.96844   0.98308   0.98706   0.99436
 Alpha virt. eigenvalues --    1.00139   1.01017   1.01667   1.01814   1.02862
 Alpha virt. eigenvalues --    1.03427   1.05326   1.06256   1.07428   1.08097
 Alpha virt. eigenvalues --    1.08265   1.09741   1.11499   1.15701   1.15805
 Alpha virt. eigenvalues --    1.21403   1.24242   1.24403   1.25107   1.30424
 Alpha virt. eigenvalues --    1.30690   1.30921   1.35226   1.35361   1.37621
 Alpha virt. eigenvalues --    1.40755   1.48276   1.48926   1.52603   1.52898
 Alpha virt. eigenvalues --    1.54677   1.57723   1.65658   1.72331   1.74402
 Alpha virt. eigenvalues --    1.74929   1.77772   1.78067   1.80850   1.84473
 Alpha virt. eigenvalues --    1.84678   1.86500   1.91142   1.91615   1.92354
 Alpha virt. eigenvalues --    1.92994   1.93580   1.95084   1.99869   2.00269
 Alpha virt. eigenvalues --    2.01659   2.01724   2.06274   2.06395   2.09259
 Alpha virt. eigenvalues --    2.09445   2.10858   2.14308   2.15929   2.15985
 Alpha virt. eigenvalues --    2.17479   2.19933   2.25713   2.26538   2.30237
 Alpha virt. eigenvalues --    2.30583   2.35439   2.35613   2.44200   2.44505
 Alpha virt. eigenvalues --    2.44526   2.46168   2.50252   2.60384   2.66913
 Alpha virt. eigenvalues --    2.69138   2.69460   3.01489   3.12167   3.12327
 Alpha virt. eigenvalues --    3.30746   3.37122   3.42840   3.42901   3.43448
 Alpha virt. eigenvalues --    3.43766   3.49466   3.66954   3.96843
          Condensed to atoms (all electrons):
               1          2          3          4          5          6
     1  C    4.799777   0.579346  -0.022787  -0.044645  -0.023458   0.579386
     2  C    0.579346   4.803792   0.578569  -0.023491  -0.045437  -0.023358
     3  C   -0.022787   0.578569   4.801104   0.579372  -0.023613  -0.044810
     4  C   -0.044645  -0.023491   0.579372   4.805125   0.577066  -0.023415
     5  C   -0.023458  -0.045437  -0.023613   0.577066   4.807365   0.578622
     6  C    0.579386  -0.023358  -0.044810  -0.023415   0.578622   4.802769
     7  H    0.373699  -0.045001   0.004299   0.000774   0.004360  -0.045507
     8  H   -0.045120   0.373434  -0.045022   0.004295   0.000789   0.004359
     9  H    0.004251  -0.044713   0.373227  -0.045246   0.004258   0.000783
    10  H    0.000775   0.004171  -0.044467   0.372896  -0.044625   0.004195
    11  H    0.004283   0.000810   0.004309  -0.044792   0.373147  -0.044775
    12  H   -0.045041   0.004296   0.000768   0.004225  -0.044750   0.373196
    13  C   -0.000000  -0.000000   0.000000   0.000000   0.000000  -0.000000
    14  C   -0.000000   0.000000   0.000000  -0.000000  -0.000000  -0.000000
    15  C   -0.000000   0.000000   0.000000   0.000000   0.000000   0.000000
    16  C    0.000000  -0.000000  -0.000000  -0.000001  -0.000000   0.000000
    17  C    0.000000  -0.000000  -0.000000  -0.000000   0.000000  -0.000000
    18  H   -0.000000   0.000000  -0.000000  -0.000000  -0.000000   0.000000
    19  H   -0.000000   0.000000   0.000000   0.000000   0.000000   0.000000
    20  H    0.000000  -0.000000  -0.000000   0.000000  -0.000000   0.000000
    21  H    0.000000   0.000000  -0.000000  -0.000000  -0.000000   0.000000
    22  H    0.000000   0.000000  -0.000000  -0.000000  -0.000000   0.000000
    23  H    0.000000  -0.000000  -0.000000  -0.000000   0.000000   0.000000
    24  H    0.000000  -0.000000  -0.000000   0.000000  -0.000000   0.000000
    25  H   -0.000000   0.000000   0.000002   0.000007   0.000001  -0.000000
    26  H    0.000000  -0.000000   0.000000  -0.000000   0.000000  -0.000000
    27  H    0.000000   0.000000   0.000002   0.000000   0.000000  -0.000000
    28  H   -0.000000   0.000000   0.000000   0.000000  -0.000000  -0.000000
    29  H    0.000000   0.000000   0.000000  -0.000000  -0.000000  -0.000000
               7          8          9         10         11         12
     1  C    0.373699  -0.045120   0.004251   0.000775   0.004283  -0.045041
     2  C   -0.045001   0.373434  -0.044713   0.004171   0.000810   0.004296
     3  C    0.004299  -0.045022   0.373227  -0.044467   0.004309   0.000768
     4  C    0.000774   0.004295  -0.045246   0.372896  -0.044792   0.004225
     5  C    0.004360   0.000789   0.004258  -0.044625   0.373147  -0.044750
     6  C   -0.045507   0.004359   0.000783   0.004195  -0.044775   0.373196
     7  H    0.558232  -0.006328  -0.000183   0.000022  -0.000188  -0.006308
     8  H   -0.006328   0.558472  -0.006307  -0.000181   0.000022  -0.000188
     9  H   -0.000183  -0.006307   0.558359  -0.006105  -0.000187   0.000022
    10  H    0.000022  -0.000181  -0.006105   0.557953  -0.006222  -0.000180
    11  H   -0.000188   0.000022  -0.000187  -0.006222   0.557960  -0.006156
    12  H   -0.006308  -0.000188   0.000022  -0.000180  -0.006156   0.558219
    13  C    0.000000  -0.000000   0.000000  -0.000000   0.000000  -0.000000
    14  C   -0.000000   0.000000   0.000000  -0.000000  -0.000000   0.000000
    15  C    0.000000   0.000000  -0.000000   0.000000   0.000000  -0.000000
    16  C   -0.000000   0.000000  -0.000000  -0.000000  -0.000000   0.000000
    17  C    0.000000  -0.000000   0.000000  -0.000000   0.000000  -0.000000
    18  H   -0.000000   0.000000  -0.000000  -0.000000  -0.000000   0.000000
    19  H   -0.000000   0.000000   0.000000   0.000000  -0.000000   0.000000
    20  H    0.000000  -0.000000  -0.000000  -0.000000   0.000000  -0.000000
    21  H   -0.000000   0.000000   0.000000   0.000000  -0.000000   0.000000
    22  H    0.000000  -0.000000  -0.000000   0.000000  -0.000000  -0.000000
    23  H    0.000000  -0.000000   0.000000   0.000000  -0.000000  -0.000000
    24  H   -0.000000   0.000000  -0.000000   0.000000  -0.000000  -0.000000
    25  H   -0.000000  -0.000000  -0.000000   0.000001  -0.000000  -0.000000
    26  H    0.000000  -0.000000   0.000000  -0.000000   0.000000  -0.000000
    27  H   -0.000000  -0.000000   0.000003  -0.000000  -0.000000   0.000000
    28  H   -0.000000   0.000000  -0.000000   0.000000  -0.000000   0.000000
    29  H   -0.000000   0.000000  -0.000000  -0.000000  -0.000000   0.000000
              13         14         15         16         17         18
     1  C   -0.000000  -0.000000  -0.000000   0.000000   0.000000  -0.000000
     2  C   -0.000000   0.000000   0.000000  -0.000000  -0.000000   0.000000
     3  C    0.000000   0.000000   0.000000  -0.000000  -0.000000  -0.000000
     4  C    0.000000  -0.000000   0.000000  -0.000001  -0.000000  -0.000000
     5  C    0.000000  -0.000000   0.000000  -0.000000   0.000000  -0.000000
     6  C   -0.000000  -0.000000   0.000000   0.000000  -0.000000   0.000000
     7  H    0.000000  -0.000000   0.000000  -0.000000   0.000000  -0.000000
     8  H   -0.000000   0.000000   0.000000   0.000000  -0.000000   0.000000
     9  H    0.000000   0.000000  -0.000000  -0.000000   0.000000  -0.000000
    10  H   -0.000000  -0.000000   0.000000  -0.000000  -0.000000  -0.000000
    11  H    0.000000  -0.000000   0.000000  -0.000000   0.000000  -0.000000
    12  H   -0.000000   0.000000  -0.000000   0.000000  -0.000000   0.000000
    13  C    5.110171   0.382941  -0.045685   0.003314  -0.000108   0.382438
    14  C    0.382941   4.967598   0.401475  -0.040540   0.003244  -0.032964
    15  C   -0.045685   0.401475   4.989087   0.399771  -0.044273  -0.003838
    16  C    0.003314  -0.040540   0.399771   4.970447   0.379887   0.000021
    17  C   -0.000108   0.003244  -0.044273   0.379887   5.111540   0.000000
    18  H    0.382438  -0.032964  -0.003838   0.000021   0.000000   0.537629
    19  H    0.382146  -0.032950  -0.003842   0.000024   0.000001  -0.028629
    20  H    0.380162  -0.027730   0.003939  -0.000105   0.000001  -0.026876
    21  H   -0.035710   0.381789  -0.037324  -0.002827   0.000011   0.004647
    22  H   -0.035735   0.381960  -0.037411  -0.002756   0.000015  -0.003799
    23  H   -0.002343  -0.036459   0.377231  -0.036283  -0.002287   0.003955
    24  H   -0.002277  -0.036468   0.377075  -0.036158  -0.002179  -0.000222
    25  H    0.000024  -0.003039  -0.037478   0.380210  -0.034337   0.000005
    26  H    0.000016  -0.002880  -0.038173   0.381373  -0.035214   0.000004
    27  H    0.000001   0.000015  -0.003626  -0.032145   0.381314  -0.000001
    28  H    0.000001   0.000012  -0.003512  -0.032360   0.382385   0.000000
    29  H    0.000001  -0.000097   0.003663  -0.026543   0.378755   0.000000
              19         20         21         22         23         24
     1  C   -0.000000   0.000000   0.000000   0.000000   0.000000   0.000000
     2  C    0.000000  -0.000000   0.000000   0.000000  -0.000000  -0.000000
     3  C    0.000000  -0.000000  -0.000000  -0.000000  -0.000000  -0.000000
     4  C    0.000000   0.000000  -0.000000  -0.000000  -0.000000   0.000000
     5  C    0.000000  -0.000000  -0.000000  -0.000000   0.000000  -0.000000
     6  C    0.000000   0.000000   0.000000   0.000000   0.000000   0.000000
     7  H   -0.000000   0.000000  -0.000000   0.000000   0.000000  -0.000000
     8  H    0.000000  -0.000000   0.000000  -0.000000  -0.000000   0.000000
     9  H    0.000000  -0.000000   0.000000  -0.000000   0.000000  -0.000000
    10  H    0.000000  -0.000000   0.000000   0.000000   0.000000   0.000000
    11  H   -0.000000   0.000000  -0.000000  -0.000000  -0.000000  -0.000000
    12  H    0.000000  -0.000000   0.000000  -0.000000  -0.000000  -0.000000
    13  C    0.382146   0.380162  -0.035710  -0.035735  -0.002343  -0.002277
    14  C   -0.032950  -0.027730   0.381789   0.381960  -0.036459  -0.036468
    15  C   -0.003842   0.003939  -0.037324  -0.037411   0.377231   0.377075
    16  C    0.000024  -0.000105  -0.002827  -0.002756  -0.036283  -0.036158
    17  C    0.000001   0.000001   0.000011   0.000015  -0.002287  -0.002179
    18  H   -0.028629  -0.026876   0.004647  -0.003799   0.003955  -0.000222
    19  H    0.538468  -0.026689  -0.003802   0.004630  -0.000220   0.003939
    20  H   -0.026689   0.531162  -0.002527  -0.002493  -0.000043  -0.000047
    21  H   -0.003802  -0.002527   0.568593  -0.034661   0.005097  -0.004387
    22  H    0.004630  -0.002493  -0.034661   0.567697  -0.004309   0.005119
    23  H   -0.000220  -0.000043   0.005097  -0.004309   0.574441  -0.036022
    24  H    0.003939  -0.000047  -0.004387   0.005119  -0.036022   0.573940
    25  H    0.000003   0.000002  -0.000230   0.004217  -0.004293   0.004967
    26  H    0.000005   0.000002   0.004142  -0.000258   0.005144  -0.004327
    27  H    0.000000   0.000000   0.000003   0.000005   0.003807  -0.000199
    28  H   -0.000001   0.000000   0.000005   0.000004  -0.000211   0.003728
    29  H    0.000000  -0.000000   0.000002   0.000002  -0.000044  -0.000047
              25         26         27         28         29
     1  C   -0.000000   0.000000   0.000000  -0.000000   0.000000
     2  C    0.000000  -0.000000   0.000000   0.000000   0.000000
     3  C    0.000002   0.000000   0.000002   0.000000   0.000000
     4  C    0.000007  -0.000000   0.000000   0.000000  -0.000000
     5  C    0.000001   0.000000   0.000000  -0.000000  -0.000000
     6  C   -0.000000  -0.000000  -0.000000  -0.000000  -0.000000
     7  H   -0.000000   0.000000  -0.000000  -0.000000  -0.000000
     8  H   -0.000000  -0.000000  -0.000000   0.000000   0.000000
     9  H   -0.000000   0.000000   0.000003  -0.000000  -0.000000
    10  H    0.000001  -0.000000  -0.000000   0.000000  -0.000000
    11  H   -0.000000   0.000000  -0.000000  -0.000000  -0.000000
    12  H   -0.000000  -0.000000   0.000000   0.000000   0.000000
    13  C    0.000024   0.000016   0.000001   0.000001   0.000001
    14  C   -0.003039  -0.002880   0.000015   0.000012  -0.000097
    15  C   -0.037478  -0.038173  -0.003626  -0.003512   0.003663
    16  C    0.380210   0.381373  -0.032145  -0.032360  -0.026543
    17  C   -0.034337  -0.035214   0.381314   0.382385   0.378755
    18  H    0.000005   0.000004  -0.000001   0.000000   0.000000
    19  H    0.000003   0.000005   0.000000  -0.000001   0.000000
    20  H    0.000002   0.000002   0.000000   0.000000  -0.000000
    21  H   -0.000230   0.004142   0.000003   0.000005   0.000002
    22  H    0.004217  -0.000258   0.000005   0.000004   0.000002
    23  H   -0.004293   0.005144   0.003807  -0.000211  -0.000044
    24  H    0.004967  -0.004327  -0.000199   0.003728  -0.000047
    25  H    0.570214  -0.033621  -0.003565   0.004352  -0.002393
    26  H   -0.033621   0.566516   0.004412  -0.003519  -0.002320
    27  H   -0.003565   0.004412   0.539388  -0.029120  -0.026286
    28  H    0.004352  -0.003519  -0.029120   0.534986  -0.026976
    29  H   -0.002393  -0.002320  -0.026286  -0.026976   0.532886
 Mulliken charges:
               1
     1  C   -0.160465
     2  C   -0.162417
     3  C   -0.160954
     4  C   -0.162170
     5  C   -0.163724
     6  C   -0.161446
     7  H    0.162129
     8  H    0.161774
     9  H    0.161838
    10  H    0.161769
    11  H    0.161789
    12  H    0.161897
    13  C   -0.519355
    14  C   -0.305909
    15  C   -0.297079
    16  C   -0.305330
    17  C   -0.518755
    18  H    0.167630
    19  H    0.166918
    20  H    0.171243
    21  H    0.157179
    22  H    0.157775
    23  H    0.152839
    24  H    0.153564
    25  H    0.154949
    26  H    0.158697
    27  H    0.165992
    28  H    0.170225
    29  H    0.169396
 Sum of Mulliken charges =  -0.00000
 Mulliken charges with hydrogens summed into heavy atoms:
               1
     1  C    0.001664
     2  C   -0.000642
     3  C    0.000884
     4  C   -0.000401
     5  C   -0.001935
     6  C    0.000451
    13  C   -0.013563
    14  C    0.009045
    15  C    0.009324
    16  C    0.008315
    17  C   -0.013141
 Electronic spatial extent (au):  <R**2>=           5071.6878
 Charge=             -0.0000 electrons
 Dipole moment (field-independent basis, Debye):
    X=              0.0221    Y=             -0.0066    Z=             -0.0707  Tot=              0.0743
 Quadrupole moment (field-independent basis, Debye-Ang):
   XX=            -69.9349   YY=            -66.7217   ZZ=            -67.8698
   XY=              1.1915   XZ=             -2.5447   YZ=              1.0783
 Traceless Quadrupole moment (field-independent basis, Debye-Ang):
   XX=             -1.7594   YY=              1.4538   ZZ=              0.3057
   XY=              1.1915   XZ=             -2.5447   YZ=              1.0783
 Octapole moment (field-independent basis, Debye-Ang**2):
  XXX=             -7.0156  YYY=             -3.8662  ZZZ=              0.5150  XYY=              9.7103
  XXY=             17.6046  XXZ=            -26.1119  XZZ=              4.5069  YZZ=             -0.0103
  YYZ=             -1.7170  XYZ=              5.0278
 Hexadecapole moment (field-independent basis, Debye-Ang**3):
 XXXX=          -5897.7971 YYYY=           -828.4096 ZZZZ=           -311.7191 XXXY=             38.3440
 XXXZ=           -103.6452 YYYX=              3.5281 YYYZ=              6.3091 ZZZX=             -8.8946
 ZZZY=              3.2193 XXYY=          -1081.9203 XXZZ=          -1010.0046 YYZZ=           -189.3125
 XXYZ=             26.0261 YYXZ=             -1.5715 ZZXY=             -0.4739
 N-N= 5.187614506744D+02 E-N=-2.031419797460D+03  KE= 4.261015033413D+02


 DIATOMIC MOLECULES ARE PECULIAR BECAUSE THEY ONLY HAVE TWO ENDS,
 AND THESE ENDS ARE VERY CLOSE TOGETHER.
 KLAUS RUEDENBERG, REV.MOD.PHYS. PG 176, 32, (1960)
Job cpu time:       0 days  0 hours 10 minutes 15.3 seconds.
 Elapsed time:       0 days  0 hours  0 minutes 38.5 seconds.
 File lengths (MBytes):  RWF=    329 Int=      0 D2E=      0 Chk=     43 Scr=      1
 Normal termination of Gaussian 16 at Fri Jun 25 21:16:37 2021.
