 Entering Gaussian System, Link 0=g16
 Initial command:
 /home/yu/g16/l1.exe "/home/yu/g16/scratch/Gau-354670.inp" -scrdir="/home/yu/g16/scratch/"
 Entering Link 1 = /home/yu/g16/l1.exe PID=    354672.
  
 Copyright (c) 1988,1990,1992,1993,1995,1998,2003,2009,2016,
            Gaussian, Inc.  All Rights Reserved.
  
 This is part of the Gaussian(R) 16 program.  It is based on
 the Gaussian(R) 09 system (copyright 2009, Gaussian, Inc.),
 the Gaussian(R) 03 system (copyright 2003, Gaussian, Inc.),
 the Gaussian(R) 98 system (copyright 1998, Gaussian, Inc.),
 the Gaussian(R) 94 system (copyright 1995, Gaussian, Inc.),
 the Gaussian 92(TM) system (copyright 1992, Gaussian, Inc.),
 the Gaussian 90(TM) system (copyright 1990, Gaussian, Inc.),
 the Gaussian 88(TM) system (copyright 1988, Gaussian, Inc.),
 the Gaussian 86(TM) system (copyright 1986, Carnegie Mellon
 University), and the Gaussian 82(TM) system (copyright 1983,
 Carnegie Mellon University). Gaussian is a federally registered
 trademark of Gaussian, Inc.
  
 This software contains proprietary and confidential information,
 including trade secrets, belonging to Gaussian, Inc.
  
 This software is provided under written license and may be
 used, copied, transmitted, or stored only in accord with that
 written license.
  
 The following legend is applicable only to US Government
 contracts under FAR:
  
                    RESTRICTED RIGHTS LEGEND
  
 Use, reproduction and disclosure by the US Government is
 subject to restrictions as set forth in subparagraphs (a)
 and (c) of the Commercial Computer Software - Restricted
 Rights clause in FAR 52.227-19.
  
 Gaussian, Inc.
 340 Quinnipiac St., Bldg. 40, Wallingford CT 06492
  
  
 ---------------------------------------------------------------
 Warning -- This program may not be used in any manner that
 competes with the business of Gaussian, Inc. or will provide
 assistance to any competitor of Gaussian, Inc.  The licensee
 of this program is prohibited from giving any competitor of
 Gaussian, Inc. access to this program.  By using this program,
 the user acknowledges that Gaussian, Inc. is engaged in the
 business of creating and licensing software in the field of
 computational chemistry and represents and warrants to the
 licensee that it is not a competitor of Gaussian, Inc. and that
 it will not use this program in any manner prohibited above.
 ---------------------------------------------------------------
  

 Cite this work as:
 Gaussian 16, Revision A.03,
 M. J. Frisch, G. W. Trucks, H. B. Schlegel, G. E. Scuseria, 
 M. A. Robb, J. R. Cheeseman, G. Scalmani, V. Barone, 
 G. A. Petersson, H. Nakatsuji, X. Li, M. Caricato, A. V. Marenich, 
 J. Bloino, B. G. Janesko, R. Gomperts, B. Mennucci, H. P. Hratchian, 
 J. V. Ortiz, A. F. Izmaylov, J. L. Sonnenberg, D. Williams-Young, 
 F. Ding, F. Lipparini, F. Egidi, J. Goings, B. Peng, A. Petrone, 
 T. Henderson, D. Ranasinghe, V. G. Zakrzewski, J. Gao, N. Rega, 
 G. Zheng, W. Liang, M. Hada, M. Ehara, K. Toyota, R. Fukuda, 
 J. Hasegawa, M. Ishida, T. Nakajima, Y. Honda, O. Kitao, H. Nakai, 
 T. Vreven, K. Throssell, J. A. Montgomery, Jr., J. E. Peralta, 
 F. Ogliaro, M. J. Bearpark, J. J. Heyd, E. N. Brothers, K. N. Kudin, 
 V. N. Staroverov, T. A. Keith, R. Kobayashi, J. Normand, 
 K. Raghavachari, A. P. Rendell, J. C. Burant, S. S. Iyengar, 
 J. Tomasi, M. Cossi, J. M. Millam, M. Klene, C. Adamo, R. Cammi, 
 J. W. Ochterski, R. L. Martin, K. Morokuma, O. Farkas, 
 J. B. Foresman, and D. J. Fox, Gaussian, Inc., Wallingford CT, 2016.
 
 ******************************************
 Gaussian 16:  ES64L-G16RevA.03 25-Dec-2016
                25-Jun-2021 
 ******************************************
 %mem=16GB
 %nprocshared=16
 Will use up to   16 processors via shared memory.
 %Chk=./chk/0-8_0297.chk
 --------------------------------------------------------
 # wB97XD/6-31G(d') Force # Integral=(Grid=UltraFineGrid)
 --------------------------------------------------------
 1/10=7,30=1,38=1/1,3;
 2/12=2,17=6,18=5,40=1/2;
 3/5=11,6=6,7=1,11=2,25=1,30=1,71=1,74=-58,75=-5/1,2,3;
 4//1;
 5/5=2,38=5/2;
 6/7=2,8=2,9=2,10=2,28=1/1;
 7/29=1/1,2,3,16;
 1/10=7,30=1/3;
 99//99;
 -----------------
 Optimize geometry
 -----------------
 Symbolic Z-matrix:
 Charge =  0 Multiplicity = 1
 C                    -1.21136  -0.68919   0. 
 C                    -1.20254   0.70448   0. 
 C                     0.00884   1.39366   0. 
 C                     1.21136   0.68919  0. 
 C                     1.20254  -0.70448  0. 
 C                    -0.00884  -1.39366  0. 
 H                    -2.15672  -1.22699  -0.00001 
 H                    -2.14096   1.2543   -0.00002 
 H                     0.0158    2.48126  -0.00001 
 H                     2.15672   1.22699  0. 
 H                     2.14096  -1.2543    0. 
 H                    -0.0158   -2.48126  0. 
 C                     6.50305   2.84901   6.46054 
 C                     5.23201   1.99986   6.46054 
 C                     3.95349   2.83951   6.46054 
 C                     2.67498   1.99986   6.46054 
 C                     1.40394   2.84901   6.46054 
 H                     6.54415   3.49655   5.57512 
 H                     6.54415   3.49654   7.34596 
 H                     7.40401   2.22399   6.46054 
 H                     5.23095   1.33896   7.33953 
 H                     5.23095   1.33896   5.58156 
 H                     3.95349   3.50226   5.58126 
 H                     3.95349   3.50226   7.33982 
 H                     2.67604   1.33896   5.58156 
 H                     2.67604   1.33896   7.33953 
 H                     1.36284   3.49655   5.57512 
 H                     1.36284   3.49655   7.34596 
 H                     0.50298   2.22399   6.46054 
 

 GradGradGradGradGradGradGradGradGradGradGradGradGradGradGradGradGradGrad
 Berny optimization.
 Initialization pass.
 Trust Radius=3.00D-01 FncErr=1.00D-07 GrdErr=1.00D-07 EigMax=2.50D+02 EigMin=1.00D-04
 Number of steps in this run=      2 maximum allowed number of steps=      2.
 GradGradGradGradGradGradGradGradGradGradGradGradGradGradGradGradGradGrad

                          Input orientation:                          
 ---------------------------------------------------------------------
 Center     Atomic      Atomic             Coordinates (Angstroms)
 Number     Number       Type             X           Y           Z
 ---------------------------------------------------------------------
      1          6           0       -1.211364   -0.689190    0.000002
      2          6           0       -1.202544    0.704485    0.000003
      3          6           0        0.008839    1.393656    0.000003
      4          6           0        1.211364    0.689190   -0.000000
      5          6           0        1.202544   -0.704484   -0.000002
      6          6           0       -0.008839   -1.393656   -0.000001
      7          1           0       -2.156721   -1.226988   -0.000008
      8          1           0       -2.140962    1.254297   -0.000017
      9          1           0        0.015802    2.481264   -0.000010
     10          1           0        2.156721    1.226988   -0.000004
     11          1           0        2.140962   -1.254297    0.000005
     12          1           0       -0.015801   -2.481263   -0.000001
     13          6           0        6.503047    2.849006    6.460541
     14          6           0        5.232005    1.999861    6.460541
     15          6           0        3.953494    2.839506    6.460540
     16          6           0        2.674983    1.999861    6.460541
     17          6           0        1.403941    2.849006    6.460541
     18          1           0        6.544147    3.496548    5.575124
     19          1           0        6.544149    3.496544    7.345962
     20          1           0        7.404010    2.223988    6.460539
     21          1           0        5.230946    1.338962    7.339526
     22          1           0        5.230947    1.338962    5.581556
     23          1           0        3.953494    3.502255    5.581262
     24          1           0        3.953494    3.502257    7.339817
     25          1           0        2.676041    1.338962    5.581557
     26          1           0        2.676042    1.338963    7.339527
     27          1           0        1.362840    3.496546    5.575122
     28          1           0        1.362839    3.496546    7.345961
     29          1           0        0.502978    2.223988    6.460541
 ---------------------------------------------------------------------
                    Distance matrix (angstroms):
                    1          2          3          4          5
     1  C    0.000000
     2  C    1.393703   0.000000
     3  C    2.413948   1.393703   0.000000
     4  C    2.787390   2.413957   1.393678   0.000000
     5  C    2.413956   2.787408   2.413944   1.393702   0.000000
     6  C    1.393678   2.413945   2.787369   2.413948   1.393703
     7  H    1.087624   2.154307   3.399622   3.875014   3.399658
     8  H    2.154367   1.087622   2.154313   3.399623   3.875030
     9  H    3.399664   2.154370   1.087630   2.154274   3.399609
    10  H    3.875014   3.399658   2.154339   1.087624   2.154307
    11  H    3.399623   3.875030   3.399648   2.154367   1.087622
    12  H    2.154274   3.399610   3.874998   3.399663   2.154370
    13  C   10.666280  10.281715   9.275307   8.625851   9.080817
    14  C    9.512442   9.209776   8.329916   7.721529   8.080140
    15  C    8.992553   8.537071   7.706447   7.340416   7.865507
    16  C    8.004577   7.645375   7.015295   6.752676   7.156827
    17  C    7.816471   7.289121   6.767784   6.814725   7.376074
    18  H   10.428343   9.944286   8.843889   8.209863   8.789962
    19  H   11.473076  11.034943  10.054627   9.501736  10.007226
    20  H   11.155708  10.868311   9.854772   9.079815   9.421928
    21  H    9.974235   9.780642   9.007885   8.393324   8.618142
    22  H    8.761878   8.540849   7.643764   6.908909   7.180355
    23  H    8.682997   8.097080   7.152408   6.825181   7.510985
    24  H    9.905396   9.396017   8.595311   8.324995   8.895917
    25  H    7.097822   6.826399   6.186332   5.807001   6.123779
    26  H    8.549500   8.325539   7.809326   7.512399   7.759868
    27  H    7.431613   6.742311   6.110435   6.243891   6.982575
    28  H    8.837987   8.266795   7.760062   7.865579   8.463895
    29  H    7.291374   6.852463   6.532394   6.678024   7.127689
                    6          7          8          9         10
     6  C    0.000000
     7  H    2.154339   0.000000
     8  H    3.399648   2.481335   0.000000
     9  H    3.874999   4.297789   2.481346   0.000000
    10  H    3.399622   4.962638   4.297770   2.481279   0.000000
    11  H    2.154313   4.297770   4.962652   4.297757   2.481335
    12  H    1.087629   2.481279   4.297758   4.962628   4.297788
    13  C   10.106604  11.547467  10.908748   9.162876   7.953624
    14  C    8.984487  10.331724   9.831343   8.317406   7.196759
    15  C    8.680918   9.778025   9.021866   7.574461   6.896901
    16  C    7.775440   8.688878   8.092465   7.002979   6.527218
    17  C    7.857145   8.427973   7.539777   6.618223   6.703452
    18  H    9.896350  11.362174  10.561297   8.644779   7.448655
    19  H   10.991764  12.328024  11.594060   9.879950   8.852323
    20  H   10.477417  12.043898  11.566571   9.817866   8.382522
    21  H    9.422909  10.725226  10.402936   9.075867   7.958147
    22  H    8.128735   9.608100   9.246954   7.723760   6.373164
    23  H    8.415493   9.531581   8.564250   6.906405   6.289338
    24  H    9.671762  10.657087   9.801473   8.391716   7.891655
    25  H    6.769754   7.816237   7.373239   6.287735   5.606787
    26  H    8.279159   9.154697   8.779499   7.889900   7.358733
    27  H    7.541723   8.110558   6.956039   5.824724   6.071505
    28  H    8.930775   9.416068   8.442019   7.537148   7.729447
    29  H    7.422123   7.792427   7.047661   6.483999   6.742961
                   11         12         13         14         15
    11  H    0.000000
    12  H    2.481345   0.000000
    13  C    8.809280  10.613471   0.000000
    14  C    7.866551   9.452965   1.528592   0.000000
    15  C    7.860217   9.263071   2.549571   1.529573   0.000000
    16  C    7.253499   8.310199   3.921112   2.557022   1.529573
    17  C    7.688877   8.495060   5.099106   3.921112   2.549571
    18  H    8.546375  10.480896   1.097708   2.178475   2.815519
    19  H    9.793959  11.520864   1.097709   2.178475   2.815522
    20  H    9.029765  10.905575   1.096532   2.183538   3.504985
    21  H    8.375056   9.797507   2.161270   1.099729   2.157807
    22  H    6.886706   8.560156   2.161270   1.099729   2.157807
    23  H    7.553840   9.094410   2.774903   2.159840   1.101075
    24  H    8.932129  10.267948   2.774902   2.159840   1.101075
    25  H    6.177785   7.279693   4.206997   2.782508   2.157807
    26  H    7.802557   8.701082   4.206996   2.782508   2.157807
    27  H    7.365997   8.289563   5.255949   4.241989   2.815520
    28  H    8.782885   9.570685   5.255950   4.241990   2.815522
    29  H    7.517978   8.009190   6.032535   4.734335   3.504985
                   16         17         18         19         20
    16  C    0.000000
    17  C    1.528592   0.000000
    18  H    4.241988   5.255948   0.000000
    19  H    4.241990   5.255950   1.770838   0.000000
    20  H    4.734335   6.032535   1.772776   1.772776   0.000000
    21  H    2.782508   4.206996   3.081037   2.525808   2.505613
    22  H    2.782509   4.206997   2.525809   3.081037   2.505611
    23  H    2.159840   2.774903   2.590667   3.134596   3.783273
    24  H    2.159840   2.774902   3.134590   2.590669   3.783274
    25  H    1.099728   2.161269   4.429161   4.767656   4.889741
    26  H    1.099729   2.161270   4.767654   4.429159   4.889741
    27  H    2.178475   1.097709   5.181307   5.475567   6.236914
    28  H    2.178476   1.097709   5.475565   5.181310   6.236916
    29  H    2.183538   1.096532   6.236914   6.236916   6.901032
                   21         22         23         24         25
    21  H    0.000000
    22  H    1.757970   0.000000
    23  H    3.066466   2.512314   0.000000
    24  H    2.512315   3.066466   1.758555   0.000000
    25  H    3.101289   2.554906   2.512314   3.066465   0.000000
    26  H    2.554904   3.101290   3.066466   2.512315   1.757970
    27  H    4.767655   4.429160   2.590668   3.134592   2.525808
    28  H    4.429160   4.767657   3.134595   2.590669   3.081037
    29  H    4.889741   4.889742   3.783274   3.783274   2.505611
                   26         27         28         29
    26  H    0.000000
    27  H    3.081037   0.000000
    28  H    2.525808   1.770839   0.000000
    29  H    2.505612   1.772776   1.772776   0.000000
 Stoichiometry    C11H18
 Framework group  C1[X(C11H18)]
 Deg. of freedom    81
 Full point group                 C1      NOp   1
 Largest Abelian subgroup         C1      NOp   1
 Largest concise Abelian subgroup C1      NOp   1
                         Standard orientation:                         
 ---------------------------------------------------------------------
 Center     Atomic      Atomic             Coordinates (Angstroms)
 Number     Number       Type             X           Y           Z
 ---------------------------------------------------------------------
      1          6           0        4.868461    0.533738   -0.647691
      2          6           0        4.423559    0.960727    0.602169
      3          6           0        3.537903    0.171394    1.333588
      4          6           0        3.097161   -1.044886    0.815178
      5          6           0        3.542064   -1.471874   -0.434681
      6          6           0        4.427719   -0.682541   -1.166101
      7          1           0        5.559621    1.149735   -1.218456
      8          1           0        4.767498    1.909889    1.006792
      9          1           0        3.190673    0.504537    2.308978
     10          1           0        2.406012   -1.660888    1.385950
     11          1           0        3.198134   -2.421042   -0.839299
     12          1           0        4.774958   -1.015691   -2.141485
     13          6           0       -5.491389   -1.756500    0.446773
     14          6           0       -4.522323   -0.967567   -0.433620
     15          6           0       -4.082354    0.353818    0.198805
     16          6           0       -3.112169    1.151902   -0.673776
     17          6           0       -2.679319    2.470058   -0.032135
     18          1           0       -5.034858   -2.000138    1.414855
     19          1           0       -6.402164   -1.177422    0.647079
     20          1           0       -5.790911   -2.698062   -0.028759
     21          1           0       -4.991753   -0.764269   -1.407124
     22          1           0       -3.634382   -1.581011   -0.644931
     23          1           0       -3.612698    0.151838    1.173994
     24          1           0       -4.970521    0.968851    0.411549
     25          1           0       -2.225396    0.536705   -0.884888
     26          1           0       -3.582767    1.353445   -1.647080
     27          1           0       -2.177453    2.294553    0.928225
     28          1           0       -3.544759    3.117274    0.160453
     29          1           0       -1.985110    3.022081   -0.676904
 ---------------------------------------------------------------------
 Rotational constants (GHZ):           1.4399890           0.1950909           0.1835859
 Standard basis: 6-31(d') (6D, 7F)
 There are   201 symmetry adapted cartesian basis functions of A   symmetry.
 There are   201 symmetry adapted basis functions of A   symmetry.
   201 basis functions,   380 primitive gaussians,   201 cartesian basis functions
    42 alpha electrons       42 beta electrons
       nuclear repulsion energy       502.6438868146 Hartrees.
 NAtoms=   29 NActive=   29 NUniq=   29 SFac= 1.00D+00 NAtFMM=   60 NAOKFM=F Big=F
 Integral buffers will be    131072 words long.
 Raffenetti 2 integral format.
 Two-electron integral symmetry is turned on.
 Nuclear repulsion after empirical dispersion term =      502.6308578001 Hartrees.
 One-electron integrals computed using PRISM.
 NBasis=   201 RedAO= T EigKep=  4.01D-04  NBF=   201
 NBsUse=   201 1.00D-06 EigRej= -1.00D+00 NBFU=   201
 ExpMin= 1.61D-01 ExpMax= 3.05D+03 ExpMxC= 4.57D+02 IAcc=3 IRadAn=         5 AccDes= 0.00D+00
 Harris functional with IExCor= 4639 and IRadAn=       5 diagonalized for initial guess.
 HarFok:  IExCor= 4639 AccDes= 0.00D+00 IRadAn=         5 IDoV= 1 UseB2=F ITyADJ=14
 ICtDFT=  3500011 ScaDFX=  1.000000  1.000000  1.000000  1.000000
 FoFCou: FMM=F IPFlag=           0 FMFlag=      100000 FMFlg1=           0
         NFxFlg=           0 DoJE=T BraDBF=F KetDBF=T FulRan=T
         wScrn=  0.000000 ICntrl=       500 IOpCl=  0 I1Cent=   200000004 NGrid=           0
         NMat0=    1 NMatS0=      1 NMatT0=    0 NMatD0=    1 NMtDS0=    0 NMtDT0=    0
 Petite list used in FoFCou.
 Requested convergence on RMS density matrix=1.00D-08 within 128 cycles.
 Requested convergence on MAX density matrix=1.00D-06.
 Requested convergence on             energy=1.00D-06.
 No special actions if energy rises.
 Integral accuracy reduced to 1.0D-05 until final iterations.
 Initial convergence to 1.0D-05 achieved.  Increase integral accuracy.
 SCF Done:  E(RwB97XD) =  -429.870740521     A.U. after   12 cycles
            NFock= 12  Conv=0.20D-08     -V/T= 2.0102

 **********************************************************************

            Population analysis using the SCF density.

 **********************************************************************

 Orbital symmetries:
       Occupied  (A) (A) (A) (A) (A) (A) (A) (A) (A) (A) (A) (A)
                 (A) (A) (A) (A) (A) (A) (A) (A) (A) (A) (A) (A)
                 (A) (A) (A) (A) (A) (A) (A) (A) (A) (A) (A) (A)
                 (A) (A) (A) (A) (A) (A)
       Virtual   (A) (A) (A) (A) (A) (A) (A) (A) (A) (A) (A) (A)
                 (A) (A) (A) (A) (A) (A) (A) (A) (A) (A) (A) (A)
                 (A) (A) (A) (A) (A) (A) (A) (A) (A) (A) (A) (A)
                 (A) (A) (A) (A) (A) (A) (A) (A) (A) (A) (A) (A)
                 (A) (A) (A) (A) (A) (A) (A) (A) (A) (A) (A) (A)
                 (A) (A) (A) (A) (A) (A) (A) (A) (A) (A) (A) (A)
                 (A) (A) (A) (A) (A) (A) (A) (A) (A) (A) (A) (A)
                 (A) (A) (A) (A) (A) (A) (A) (A) (A) (A) (A) (A)
                 (A) (A) (A) (A) (A) (A) (A) (A) (A) (A) (A) (A)
                 (A) (A) (A) (A) (A) (A) (A) (A) (A) (A) (A) (A)
                 (A) (A) (A) (A) (A) (A) (A) (A) (A) (A) (A) (A)
                 (A) (A) (A) (A) (A) (A) (A) (A) (A) (A) (A) (A)
                 (A) (A) (A) (A) (A) (A) (A) (A) (A) (A) (A) (A)
                 (A) (A) (A)
 The electronic state is 1-A.
 Alpha  occ. eigenvalues --  -10.29955 -10.29927 -10.29926 -10.29866 -10.29866
 Alpha  occ. eigenvalues --  -10.29837 -10.28595 -10.28521 -10.28349 -10.27965
 Alpha  occ. eigenvalues --  -10.27861  -0.94919  -0.89495  -0.84268  -0.83901
 Alpha  occ. eigenvalues --   -0.83900  -0.76547  -0.69055  -0.69054  -0.68591
 Alpha  occ. eigenvalues --   -0.66152  -0.60929  -0.55770  -0.54536  -0.52477
 Alpha  occ. eigenvalues --   -0.51773  -0.51177  -0.50090  -0.50089  -0.48146
 Alpha  occ. eigenvalues --   -0.47221  -0.45385  -0.44962  -0.42827  -0.41901
 Alpha  occ. eigenvalues --   -0.41900  -0.40952  -0.40038  -0.39450  -0.38766
 Alpha  occ. eigenvalues --   -0.32194  -0.32192
 Alpha virt. eigenvalues --    0.07518   0.07519   0.17349   0.17665   0.19514
 Alpha virt. eigenvalues --    0.21017   0.21946   0.23132   0.23135   0.23844
 Alpha virt. eigenvalues --    0.25035   0.25942   0.26048   0.26230   0.26895
 Alpha virt. eigenvalues --    0.26897   0.27814   0.28344   0.28451   0.28687
 Alpha virt. eigenvalues --    0.28969   0.31045   0.33816   0.36041   0.36088
 Alpha virt. eigenvalues --    0.38667   0.38667   0.40241   0.40242   0.55739
 Alpha virt. eigenvalues --    0.57176   0.59389   0.59734   0.61388   0.61676
 Alpha virt. eigenvalues --    0.63508   0.64170   0.64302   0.64402   0.65460
 Alpha virt. eigenvalues --    0.67202   0.67203   0.67338   0.67832   0.67833
 Alpha virt. eigenvalues --    0.67952   0.67954   0.68221   0.73714   0.74230
 Alpha virt. eigenvalues --    0.75609   0.75610   0.77124   0.79898   0.83796
 Alpha virt. eigenvalues --    0.83862   0.86234   0.90741   0.91464   0.91467
 Alpha virt. eigenvalues --    0.92446   0.92448   0.92482   0.92855   0.95808
 Alpha virt. eigenvalues --    0.96174   0.96685   0.98327   0.98703   0.99244
 Alpha virt. eigenvalues --    0.99927   0.99928   1.00570   1.01119   1.02863
 Alpha virt. eigenvalues --    1.03194   1.03393   1.05367   1.07479   1.08138
 Alpha virt. eigenvalues --    1.08194   1.10426   1.11038   1.14299   1.14300
 Alpha virt. eigenvalues --    1.21412   1.21858   1.21860   1.25304   1.27186
 Alpha virt. eigenvalues --    1.29397   1.29398   1.32761   1.32761   1.37754
 Alpha virt. eigenvalues --    1.40888   1.48935   1.49150   1.51269   1.51270
 Alpha virt. eigenvalues --    1.55004   1.57814   1.65937   1.71809   1.72631
 Alpha virt. eigenvalues --    1.74879   1.77927   1.78086   1.78889   1.84691
 Alpha virt. eigenvalues --    1.85402   1.86562   1.88935   1.88935   1.89718
 Alpha virt. eigenvalues --    1.89720   1.92821   1.95411   1.96204   1.96205
 Alpha virt. eigenvalues --    1.97089   1.99532   2.03101   2.03103   2.04707
 Alpha virt. eigenvalues --    2.04708   2.11561   2.11752   2.13939   2.16224
 Alpha virt. eigenvalues --    2.17878   2.19958   2.25924   2.27244   2.29935
 Alpha virt. eigenvalues --    2.30779   2.32289   2.32290   2.39747   2.39749
 Alpha virt. eigenvalues --    2.43947   2.44744   2.46834   2.61196   2.61471
 Alpha virt. eigenvalues --    2.61472   2.62523   3.03518   3.10580   3.10581
 Alpha virt. eigenvalues --    3.30998   3.33401   3.37203   3.38764   3.38765
 Alpha virt. eigenvalues --    3.43720   3.49655   3.67065   3.87773
          Condensed to atoms (all electrons):
               1          2          3          4          5          6
     1  C    4.833732   0.563072  -0.025679  -0.037748  -0.025682   0.563091
     2  C    0.563072   4.833660   0.563111  -0.025677  -0.037749  -0.025674
     3  C   -0.025679   0.563111   4.833681   0.563083  -0.025673  -0.037748
     4  C   -0.037748  -0.025677   0.563083   4.833916   0.563066  -0.025685
     5  C   -0.025682  -0.037749  -0.025673   0.563066   4.833834   0.563100
     6  C    0.563091  -0.025674  -0.037748  -0.025685   0.563100   4.833709
     7  H    0.372931  -0.042156   0.003780   0.000509   0.003780  -0.042161
     8  H   -0.042154   0.372934  -0.042152   0.003780   0.000509   0.003780
     9  H    0.003781  -0.042141   0.372925  -0.042192   0.003781   0.000509
    10  H    0.000509   0.003782  -0.042184   0.372916  -0.042193   0.003782
    11  H    0.003781   0.000508   0.003781  -0.042188   0.372925  -0.042154
    12  H   -0.042157   0.003780   0.000509   0.003780  -0.042164   0.372931
    13  C   -0.000000  -0.000000   0.000000   0.000000   0.000000  -0.000000
    14  C   -0.000000   0.000000   0.000000  -0.000000  -0.000000  -0.000000
    15  C   -0.000000  -0.000000   0.000000   0.000000   0.000000   0.000000
    16  C    0.000000   0.000000  -0.000000  -0.000000  -0.000000   0.000000
    17  C   -0.000000  -0.000000  -0.000000  -0.000000   0.000000   0.000000
    18  H    0.000000   0.000000  -0.000000  -0.000000  -0.000000   0.000000
    19  H   -0.000000   0.000000   0.000000   0.000000   0.000000   0.000000
    20  H    0.000000  -0.000000  -0.000000   0.000000  -0.000000  -0.000000
    21  H    0.000000   0.000000  -0.000000  -0.000000  -0.000000   0.000000
    22  H    0.000000   0.000000  -0.000000  -0.000000  -0.000000   0.000000
    23  H    0.000000   0.000000  -0.000000  -0.000000  -0.000000   0.000000
    24  H   -0.000000   0.000000  -0.000000   0.000000  -0.000000   0.000000
    25  H   -0.000000  -0.000000   0.000000   0.000000   0.000000  -0.000000
    26  H    0.000000  -0.000000   0.000000  -0.000000   0.000000  -0.000000
    27  H   -0.000000   0.000000   0.000000   0.000000   0.000000  -0.000000
    28  H   -0.000000   0.000000   0.000000   0.000000  -0.000000  -0.000000
    29  H    0.000000   0.000000   0.000000   0.000000  -0.000000  -0.000000
               7          8          9         10         11         12
     1  C    0.372931  -0.042154   0.003781   0.000509   0.003781  -0.042157
     2  C   -0.042156   0.372934  -0.042141   0.003782   0.000508   0.003780
     3  C    0.003780  -0.042152   0.372925  -0.042184   0.003781   0.000509
     4  C    0.000509   0.003780  -0.042192   0.372916  -0.042188   0.003780
     5  C    0.003780   0.000509   0.003781  -0.042193   0.372925  -0.042164
     6  C   -0.042161   0.003780   0.000509   0.003782  -0.042154   0.372931
     7  H    0.545896  -0.004933  -0.000146   0.000015  -0.000146  -0.004935
     8  H   -0.004933   0.545850  -0.004934  -0.000146   0.000015  -0.000146
     9  H   -0.000146  -0.004934   0.546007  -0.004938  -0.000146   0.000015
    10  H    0.000015  -0.000146  -0.004938   0.546237  -0.004937  -0.000146
    11  H   -0.000146   0.000015  -0.000146  -0.004937   0.546046  -0.004935
    12  H   -0.004935  -0.000146   0.000015  -0.000146  -0.004935   0.545927
    13  C    0.000000  -0.000000  -0.000000   0.000000   0.000000  -0.000000
    14  C   -0.000000   0.000000   0.000000  -0.000000  -0.000000   0.000000
    15  C    0.000000  -0.000000  -0.000000   0.000000   0.000000  -0.000000
    16  C   -0.000000   0.000000  -0.000000  -0.000000  -0.000000   0.000000
    17  C    0.000000  -0.000000  -0.000000  -0.000000   0.000000  -0.000000
    18  H   -0.000000   0.000000   0.000000  -0.000000  -0.000000   0.000000
    19  H   -0.000000   0.000000  -0.000000   0.000000  -0.000000   0.000000
    20  H    0.000000   0.000000   0.000000  -0.000000   0.000000   0.000000
    21  H   -0.000000   0.000000   0.000000  -0.000000  -0.000000   0.000000
    22  H   -0.000000   0.000000  -0.000000   0.000000  -0.000000   0.000000
    23  H    0.000000  -0.000000  -0.000000   0.000000  -0.000000  -0.000000
    24  H   -0.000000   0.000000  -0.000000   0.000000  -0.000000   0.000000
    25  H    0.000000  -0.000000  -0.000000   0.000000  -0.000000  -0.000000
    26  H    0.000000  -0.000000   0.000000  -0.000000   0.000000  -0.000000
    27  H   -0.000000  -0.000000   0.000000   0.000000  -0.000000  -0.000000
    28  H   -0.000000   0.000000  -0.000000   0.000000  -0.000000   0.000000
    29  H   -0.000000   0.000000  -0.000000  -0.000000   0.000000   0.000000
              13         14         15         16         17         18
     1  C   -0.000000  -0.000000  -0.000000   0.000000  -0.000000   0.000000
     2  C   -0.000000   0.000000  -0.000000   0.000000  -0.000000   0.000000
     3  C    0.000000   0.000000   0.000000  -0.000000  -0.000000  -0.000000
     4  C    0.000000  -0.000000   0.000000  -0.000000  -0.000000  -0.000000
     5  C    0.000000  -0.000000   0.000000  -0.000000   0.000000  -0.000000
     6  C   -0.000000  -0.000000   0.000000   0.000000   0.000000   0.000000
     7  H    0.000000  -0.000000   0.000000  -0.000000   0.000000  -0.000000
     8  H   -0.000000   0.000000  -0.000000   0.000000  -0.000000   0.000000
     9  H   -0.000000   0.000000  -0.000000  -0.000000  -0.000000   0.000000
    10  H    0.000000  -0.000000   0.000000  -0.000000  -0.000000  -0.000000
    11  H    0.000000  -0.000000   0.000000  -0.000000   0.000000  -0.000000
    12  H   -0.000000   0.000000  -0.000000   0.000000  -0.000000   0.000000
    13  C    5.111647   0.382117  -0.045184   0.003331  -0.000110   0.381802
    14  C    0.382117   4.967255   0.402126  -0.040481   0.003331  -0.032784
    15  C   -0.045184   0.402126   4.986759   0.401955  -0.045168  -0.003756
    16  C    0.003331  -0.040481   0.401955   4.967118   0.382364   0.000020
    17  C   -0.000110   0.003331  -0.045168   0.382364   5.110785   0.000001
    18  H    0.381802  -0.032784  -0.003756   0.000020   0.000001   0.538551
    19  H    0.381864  -0.032747  -0.003749   0.000019   0.000001  -0.028497
    20  H    0.379842  -0.027358   0.003855  -0.000104   0.000001  -0.026829
    21  H   -0.035555   0.381644  -0.037777  -0.002874   0.000014   0.004572
    22  H   -0.035584   0.381639  -0.037788  -0.002850   0.000014  -0.003715
    23  H   -0.002423  -0.036997   0.376902  -0.036940  -0.002407   0.003974
    24  H   -0.002425  -0.036993   0.376898  -0.036919  -0.002395  -0.000216
    25  H    0.000015  -0.002896  -0.037750   0.382054  -0.035316   0.000005
    26  H    0.000015  -0.002903  -0.037891   0.381543  -0.035559   0.000004
    27  H    0.000001   0.000020  -0.003771  -0.032729   0.381887  -0.000001
    28  H    0.000001   0.000020  -0.003788  -0.032867   0.381632   0.000000
    29  H    0.000001  -0.000104   0.003843  -0.027202   0.380096   0.000000
              19         20         21         22         23         24
     1  C   -0.000000   0.000000   0.000000   0.000000   0.000000  -0.000000
     2  C    0.000000  -0.000000   0.000000   0.000000   0.000000   0.000000
     3  C    0.000000  -0.000000  -0.000000  -0.000000  -0.000000  -0.000000
     4  C    0.000000   0.000000  -0.000000  -0.000000  -0.000000   0.000000
     5  C    0.000000  -0.000000  -0.000000  -0.000000  -0.000000  -0.000000
     6  C    0.000000  -0.000000   0.000000   0.000000   0.000000   0.000000
     7  H   -0.000000   0.000000  -0.000000  -0.000000   0.000000  -0.000000
     8  H    0.000000   0.000000   0.000000   0.000000  -0.000000   0.000000
     9  H   -0.000000   0.000000   0.000000  -0.000000  -0.000000  -0.000000
    10  H    0.000000  -0.000000  -0.000000   0.000000   0.000000   0.000000
    11  H   -0.000000   0.000000  -0.000000  -0.000000  -0.000000  -0.000000
    12  H    0.000000   0.000000   0.000000   0.000000  -0.000000   0.000000
    13  C    0.381864   0.379842  -0.035555  -0.035584  -0.002423  -0.002425
    14  C   -0.032747  -0.027358   0.381644   0.381639  -0.036997  -0.036993
    15  C   -0.003749   0.003855  -0.037777  -0.037788   0.376902   0.376898
    16  C    0.000019  -0.000104  -0.002874  -0.002850  -0.036940  -0.036919
    17  C    0.000001   0.000001   0.000014   0.000014  -0.002407  -0.002395
    18  H   -0.028497  -0.026829   0.004572  -0.003715   0.003974  -0.000216
    19  H    0.538046  -0.026793  -0.003713   0.004569  -0.000216   0.003969
    20  H   -0.026793   0.531409  -0.002459  -0.002455  -0.000041  -0.000041
    21  H   -0.003713  -0.002459   0.568733  -0.034444   0.005193  -0.004420
    22  H    0.004569  -0.002455  -0.034444   0.568812  -0.004423   0.005195
    23  H   -0.000216  -0.000041   0.005193  -0.004423   0.576666  -0.035417
    24  H    0.003969  -0.000041  -0.004420   0.005195  -0.035417   0.576543
    25  H    0.000004   0.000002  -0.000252   0.004170  -0.004411   0.005171
    26  H    0.000005   0.000002   0.004182  -0.000255   0.005198  -0.004426
    27  H    0.000000   0.000000   0.000004   0.000005   0.003974  -0.000216
    28  H   -0.000001   0.000000   0.000005   0.000004  -0.000217   0.003977
    29  H    0.000000  -0.000000   0.000002   0.000002  -0.000041  -0.000042
              25         26         27         28         29
     1  C   -0.000000   0.000000  -0.000000  -0.000000   0.000000
     2  C   -0.000000  -0.000000   0.000000   0.000000   0.000000
     3  C    0.000000   0.000000   0.000000   0.000000   0.000000
     4  C    0.000000  -0.000000   0.000000   0.000000   0.000000
     5  C    0.000000   0.000000   0.000000  -0.000000  -0.000000
     6  C   -0.000000  -0.000000  -0.000000  -0.000000  -0.000000
     7  H    0.000000   0.000000  -0.000000  -0.000000  -0.000000
     8  H   -0.000000  -0.000000  -0.000000   0.000000   0.000000
     9  H   -0.000000   0.000000   0.000000  -0.000000  -0.000000
    10  H    0.000000  -0.000000   0.000000   0.000000  -0.000000
    11  H   -0.000000   0.000000  -0.000000  -0.000000   0.000000
    12  H   -0.000000  -0.000000  -0.000000   0.000000   0.000000
    13  C    0.000015   0.000015   0.000001   0.000001   0.000001
    14  C   -0.002896  -0.002903   0.000020   0.000020  -0.000104
    15  C   -0.037750  -0.037891  -0.003771  -0.003788   0.003843
    16  C    0.382054   0.381543  -0.032729  -0.032867  -0.027202
    17  C   -0.035316  -0.035559   0.381887   0.381632   0.380096
    18  H    0.000005   0.000004  -0.000001   0.000000   0.000000
    19  H    0.000004   0.000005   0.000000  -0.000001   0.000000
    20  H    0.000002   0.000002   0.000000   0.000000  -0.000000
    21  H   -0.000252   0.004182   0.000004   0.000005   0.000002
    22  H    0.004170  -0.000255   0.000005   0.000004   0.000002
    23  H   -0.004411   0.005198   0.003974  -0.000217  -0.000041
    24  H    0.005171  -0.004426  -0.000216   0.003977  -0.000042
    25  H    0.565853  -0.034337  -0.003708   0.004559  -0.002462
    26  H   -0.034337   0.569293   0.004568  -0.003721  -0.002445
    27  H   -0.003708   0.004568   0.538046  -0.028618  -0.026615
    28  H    0.004559  -0.003721  -0.028618   0.539588  -0.026837
    29  H   -0.002462  -0.002445  -0.026615  -0.026837   0.529385
 Mulliken charges:
               1
     1  C   -0.167478
     2  C   -0.167452
     3  C   -0.167433
     4  C   -0.167560
     5  C   -0.167534
     6  C   -0.167480
     7  H    0.167565
     8  H    0.167598
     9  H    0.167479
    10  H    0.167304
    11  H    0.167451
    12  H    0.167540
    13  C   -0.519353
    14  C   -0.304890
    15  C   -0.295717
    16  C   -0.305438
    17  C   -0.519172
    18  H    0.166869
    19  H    0.167239
    20  H    0.170969
    21  H    0.157144
    22  H    0.157104
    23  H    0.151625
    24  H    0.151757
    25  H    0.159301
    26  H    0.156727
    27  H    0.167153
    28  H    0.166262
    29  H    0.172419
 Sum of Mulliken charges =  -0.00000
 Mulliken charges with hydrogens summed into heavy atoms:
               1
     1  C    0.000087
     2  C    0.000147
     3  C    0.000046
     4  C   -0.000256
     5  C   -0.000083
     6  C    0.000060
    13  C   -0.014276
    14  C    0.009358
    15  C    0.007666
    16  C    0.010590
    17  C   -0.013338
 Electronic spatial extent (au):  <R**2>=           5953.9447
 Charge=             -0.0000 electrons
 Dipole moment (field-independent basis, Debye):
    X=              0.0496    Y=             -0.0085    Z=             -0.0700  Tot=              0.0862
 Quadrupole moment (field-independent basis, Debye-Ang):
   XX=            -70.2596   YY=            -67.5366   ZZ=            -66.9393
   XY=              2.3431   XZ=             -2.0527   YZ=              1.4292
 Traceless Quadrupole moment (field-independent basis, Debye-Ang):
   XX=             -2.0144   YY=              0.7086   ZZ=              1.3059
   XY=              2.3431   XZ=             -2.0527   YZ=              1.4292
 Octapole moment (field-independent basis, Debye-Ang**2):
  XXX=            -10.7675  YYY=             -3.3016  ZZZ=              0.6574  XYY=              7.8865
  XXY=             27.7498  XXZ=            -25.3302  XZZ=              9.3208  YZZ=             -0.1521
  YYZ=             -2.1059  XYZ=              6.8712
 Hexadecapole moment (field-independent basis, Debye-Ang**3):
 XXXX=          -7113.4540 YYYY=           -831.9184 ZZZZ=           -344.1101 XXXY=            105.2585
 XXXZ=           -105.2750 YYYX=             10.6345 YYYZ=              7.0571 ZZZX=             -8.0302
 ZZZY=              5.9180 XXYY=          -1286.7473 XXZZ=          -1197.6669 YYZZ=           -194.1345
 XXYZ=             35.0244 YYXZ=              0.9528 ZZXY=              0.3173
 N-N= 5.026308578001D+02 E-N=-1.998693923111D+03  KE= 4.255424996850D+02
 Calling FoFJK, ICntrl=      2127 FMM=F ISym2X=0 I1Cent= 0 IOpClX= 0 NMat=1 NMatS=1 NMatT=0.
 ***** Axes restored to original set *****
 -------------------------------------------------------------------
 Center     Atomic                   Forces (Hartrees/Bohr)
 Number     Number              X              Y              Z
 -------------------------------------------------------------------
      1        6          -0.000097993   -0.000067981   -0.000002524
      2        6          -0.000106382    0.000057099    0.000004564
      3        6           0.000005335    0.000164973    0.000010600
      4        6           0.000099306    0.000072991    0.000029221
      5        6           0.000114759   -0.000049369    0.000015749
      6        6           0.000003562   -0.000159739    0.000010741
      7        1           0.000001000   -0.000005265    0.000002587
      8        1           0.000002815   -0.000008292    0.000003031
      9        1          -0.000010846   -0.000007698    0.000006422
     10        1           0.000006952    0.000010809   -0.000002930
     11        1           0.000002465    0.000005936   -0.000001744
     12        1           0.000009401    0.000009068   -0.000002919
     13        6          -0.000040068   -0.000087688    0.000016733
     14        6           0.000004927    0.000152136   -0.000012612
     15        6          -0.000031415   -0.000186160    0.000034311
     16        6          -0.000016574    0.000069290   -0.000111920
     17        6           0.000018623   -0.000066122    0.000016337
     18        1           0.000014648    0.000029077   -0.000008534
     19        1           0.000019749    0.000020494   -0.000007031
     20        1           0.000022732    0.000015437    0.000001840
     21        1          -0.000005369   -0.000027261   -0.000012186
     22        1          -0.000023903   -0.000034911    0.000013050
     23        1          -0.000002492    0.000029581   -0.000013282
     24        1           0.000023304    0.000047994    0.000004356
     25        1          -0.000053684    0.000011690    0.000034306
     26        1           0.000014857   -0.000020214    0.000012443
     27        1          -0.000030889   -0.000039270   -0.000014792
     28        1           0.000003258    0.000039199    0.000037942
     29        1           0.000051921    0.000024197   -0.000063762
 -------------------------------------------------------------------
 Cartesian Forces:  Max     0.000186160 RMS     0.000051902

 GradGradGradGradGradGradGradGradGradGradGradGradGradGradGradGradGradGrad
 Berny optimization.
 Search for a local minimum.
 Step number   1 out of a maximum of    2
 All quantities printed in internal units (Hartrees-Bohrs-Radians)
 Second derivative matrix not updated -- first step.
 ITU=  0
     Eigenvalues ---   -0.00000   0.00000   0.00000   0.00000   0.00000
     Eigenvalues ---    0.00000   0.00123   0.00134   0.00414   0.00443
     Eigenvalues ---    0.00457   0.01618   0.01618   0.01639   0.01799
     Eigenvalues ---    0.03117   0.03321   0.03594   0.04365   0.04647
     Eigenvalues ---    0.04870   0.05149   0.05350   0.05634   0.06433
     Eigenvalues ---    0.06542   0.06833   0.06833   0.07010   0.07051
     Eigenvalues ---    0.07167   0.07753   0.08354   0.08426   0.09563
     Eigenvalues ---    0.09563   0.10506   0.12310   0.12561   0.12703
     Eigenvalues ---    0.12875   0.12964   0.13534   0.13787   0.14983
     Eigenvalues ---    0.16287   0.16684   0.18401   0.19773   0.20235
     Eigenvalues ---    0.24661   0.29599   0.30173   0.30174   0.30674
     Eigenvalues ---    0.40902   0.41680   0.44109   0.49634   0.57855
     Eigenvalues ---    0.60793   0.68193   0.68194   0.72198   0.82413
     Eigenvalues ---    0.84928   0.87178   0.89555   0.96276   0.97877
     Eigenvalues ---    0.98574   1.00427   1.00572   1.06524   1.08867
     Eigenvalues ---    1.10337   1.22522   1.22666   1.48029   1.58959
     Eigenvalues ---    1.58966
 Eigenvalue     1 is  -8.88D-16 should be greater than     0.000000 Eigenvector:
                          Z9        Z8        Z3        Z2        Z10
   1                    0.16382   0.16381   0.16381   0.16380   0.16380
                          Z4        Z1        Z7        Z5        Z6
   1                    0.16379   0.16378   0.16378   0.16378   0.16377
 Eigenvalue     2 is   1.06D-12 Eigenvector:
                          Z9        Z12       Z8        Z11       Z3
   1                    0.41801  -0.40869   0.34076  -0.33145   0.23683
                          Z6        Z2        Z5        Y10       Y11
   1                   -0.22751   0.19344  -0.18412  -0.17477  -0.17378
 Eigenvalue     3 is   4.05D-12 Eigenvector:
                          Z10       Z7        Z11       Z4        Z8
   1                    0.51021  -0.46472   0.32061   0.29654  -0.27512
                          Z1        Z9        Z5        Z12       Z2
   1                   -0.25105   0.21235   0.19005  -0.16686  -0.14456
 Eigenvalue     4 is   1.98D-10 Eigenvector:
                          Z29       Z20       X9        Z27       Z28
   1                    0.28374  -0.24448   0.23091   0.21840   0.21840
                          Z17       Z18       Z19       Z13       Y7
   1                    0.21502  -0.17818  -0.17818  -0.17528   0.17198
 Eigenvalue     5 is   3.65D-10 Eigenvector:
                          Y29       Z29       Y20       Z20       X12
   1                    0.24478   0.24461  -0.21804  -0.21060   0.19023
                          Y28       Z28       Z27       Y27       Z17
   1                    0.18754   0.18728   0.18728   0.18670   0.18488
 Eigenvalue     6 is   1.90D-08 Eigenvector:
                          Z25       Z26       Z21       Z22       Y27
   1                    0.27657   0.27657   0.26313   0.26313  -0.24846
                          Y25       Y23       Z18       Z19       Y19
   1                   -0.23021  -0.21388  -0.21261  -0.21261   0.20279
 Quadratic step=3.897D-01 exceeds max=3.000D-01 adjusted using Lamda=-2.958D-05.
 Angle between NR and scaled steps=   0.15 degrees.
 Angle between quadratic step and forces=  85.15 degrees.
 Linear search not attempted -- first point.
 B after Tr=     0.000124    0.001764    0.004356
         Rot=    1.000000   -0.000065   -0.000111   -0.000063 Ang=  -0.02 deg.
 Variable       Old X    -DE/DX   Delta X   Delta X   Delta X     New X
                                 (Linear)    (Quad)   (Total)
    X1       -2.28915  -0.00010   0.00000   0.02922   0.02952  -2.25963
    Y1       -1.30238  -0.00007   0.00000  -0.00724  -0.00577  -1.30815
    Z1        0.00000  -0.00000   0.00000   0.02266   0.02735   0.02735
    X2       -2.27248  -0.00011   0.00000   0.00281   0.00278  -2.26970
    Y2        1.33128   0.00006   0.00000  -0.00679  -0.00531   1.32597
    Z2        0.00001   0.00000   0.00000   0.03283   0.03786   0.03787
    X3        0.01670   0.00001   0.00000  -0.01008  -0.01028   0.00642
    Y3        2.63363   0.00016   0.00000   0.01646   0.01822   2.65185
    Z3        0.00001   0.00001   0.00000   0.05280   0.05750   0.05751
    X4        2.28915   0.00010   0.00000   0.00349   0.00346   2.29260
    Y4        1.30238   0.00007   0.00000   0.03909   0.04113   1.34351
    Z4       -0.00000   0.00003   0.00000   0.06257   0.06659   0.06659
    X5        2.27248   0.00011   0.00000   0.02990   0.03020   2.30268
    Y5       -1.33128  -0.00005   0.00000   0.03861   0.04066  -1.29062
    Z5       -0.00000   0.00002   0.00000   0.05237   0.05605   0.05604
    X6       -0.01670   0.00000   0.00000   0.04279   0.04324   0.02654
    Y6       -2.63363  -0.00016   0.00000   0.01538   0.01714  -2.61649
    Z6       -0.00000   0.00001   0.00000   0.03245   0.03646   0.03645
    X7       -4.07561   0.00000   0.00000   0.03938   0.03980  -4.03581
    Y7       -2.31867  -0.00001   0.00000  -0.02513  -0.02387  -2.34254
    Z7       -0.00001   0.00000   0.00000   0.00707   0.01202   0.01200
    X8       -4.04583   0.00000   0.00000  -0.00763  -0.00779  -4.05363
    Y8        2.37028  -0.00001   0.00000  -0.02464  -0.02339   2.34689
    Z8       -0.00003   0.00000   0.00000   0.02511   0.03068   0.03065
    X9        0.02986  -0.00001   0.00000  -0.03082  -0.03127  -0.00141
    Y9        4.68891  -0.00001   0.00000   0.01656   0.01832   4.70723
    Z9       -0.00002   0.00001   0.00000   0.06059   0.06556   0.06554
   X10        4.07561   0.00001   0.00000  -0.00666  -0.00682   4.06880
   Y10        2.31867   0.00001   0.00000   0.05697   0.05924   2.37791
   Z10       -0.00001  -0.00000   0.00000   0.07771   0.08147   0.08146
   X11        4.04583   0.00000   0.00000   0.04032   0.04074   4.08658
   Y11       -2.37028   0.00001   0.00000   0.05640   0.05867  -2.31161
   Z11        0.00001  -0.00000   0.00000   0.05964   0.06278   0.06279
   X12       -0.02986   0.00001   0.00000   0.06343   0.06414   0.03428
   Y12       -4.68891   0.00001   0.00000   0.01527   0.01703  -4.67188
   Z12       -0.00000  -0.00000   0.00000   0.02431   0.02805   0.02804
   X13       12.28898  -0.00004   0.00000  -0.01136  -0.00919  12.27979
   Y13        5.38384  -0.00009   0.00000  -0.03208  -0.03036   5.35348
   Z13       12.20865   0.00002   0.00000  -0.01646  -0.01415  12.19451
   X14        9.88706   0.00000   0.00000  -0.01776  -0.01539   9.87167
   Y14        3.77919   0.00015   0.00000  -0.02256  -0.02115   3.75804
   Z14       12.20865  -0.00001   0.00000  -0.02185  -0.01921  12.18944
   X15        7.47102  -0.00003   0.00000  -0.01186  -0.00970   7.46132
   Y15        5.36589  -0.00019   0.00000  -0.01380  -0.01269   5.35320
   Z15       12.20865   0.00003   0.00000  -0.03840  -0.03501  12.17364
   X16        5.05499  -0.00002   0.00000  -0.01807  -0.01571   5.03927
   Y16        3.77919   0.00007   0.00000  -0.00424  -0.00343   3.77576
   Z16       12.20865  -0.00011   0.00000  -0.04450  -0.04078  12.16787
   X17        2.65306   0.00002   0.00000  -0.01177  -0.00962   2.64345
   Y17        5.38384  -0.00007   0.00000   0.00481   0.00532   5.38917
   Z17       12.20865   0.00002   0.00000  -0.05947  -0.05500  12.15365
   X18       12.36665   0.00001   0.00000   0.00121   0.00286  12.36950
   Y18        6.60752   0.00003   0.00000  -0.03789  -0.03594   6.57157
   Z18       10.53546  -0.00001   0.00000  -0.02021  -0.01776  10.51770
   X19       12.36665   0.00002   0.00000  -0.01389  -0.01150  12.35515
   Y19        6.60751   0.00002   0.00000  -0.02640  -0.02490   6.58261
   Z19       13.88186  -0.00001   0.00000  -0.02046  -0.01800  13.86386
   X20       13.99155   0.00002   0.00000  -0.01576  -0.01343  13.97812
   Y20        4.20273   0.00002   0.00000  -0.03847  -0.03654   4.16619
   Z20       12.20865   0.00000   0.00000  -0.00465  -0.00286  12.20578
   X21        9.88506  -0.00001   0.00000  -0.03015  -0.02725   9.85780
   Y21        2.53027  -0.00003   0.00000  -0.01695  -0.01575   2.51452
   Z21       13.86969  -0.00001   0.00000  -0.01762  -0.01514  13.85456
   X22        9.88506  -0.00002   0.00000  -0.01531  -0.01315   9.87190
   Y22        2.53027  -0.00003   0.00000  -0.02879  -0.02716   2.50311
   Z22       10.54761   0.00001   0.00000  -0.01720  -0.01472  10.53289
   X23        7.47102  -0.00000   0.00000   0.00062   0.00225   7.47328
   Y23        6.61830   0.00003   0.00000  -0.01917  -0.01784   6.60046
   Z23       10.54706  -0.00001   0.00000  -0.04255  -0.03900  10.50806
   X24        7.47102   0.00002   0.00000  -0.01442  -0.01204   7.45898
   Y24        6.61831   0.00005   0.00000  -0.00779  -0.00689   6.61141
   Z24       13.87024   0.00000   0.00000  -0.04280  -0.03924  13.83100
   X25        5.05698  -0.00005   0.00000  -0.01654  -0.01438   5.04260
   Y25        2.53027   0.00001   0.00000  -0.00921  -0.00819   2.52208
   Z25       10.54761   0.00003   0.00000  -0.04062  -0.03706  10.51056
   X26        5.05699   0.00001   0.00000  -0.02989  -0.02700   5.02998
   Y26        2.53027  -0.00002   0.00000   0.00055   0.00114   2.53142
   Z26       13.86970   0.00001   0.00000  -0.04079  -0.03723  13.83247
   X27        2.57539  -0.00003   0.00000  -0.00018   0.00145   2.57685
   Y27        6.60751  -0.00004   0.00000  -0.00027   0.00045   6.60797
   Z27       10.53545  -0.00001   0.00000  -0.06367  -0.05903  10.47642
   X28        2.57539   0.00000   0.00000  -0.01469  -0.01231   2.56308
   Y28        6.60751   0.00004   0.00000   0.01022   0.01050   6.61802
   Z28       13.88185   0.00004   0.00000  -0.06334  -0.05870  13.82316
   X29        0.95049   0.00005   0.00000  -0.01590  -0.01359   0.93690
   Y29        4.20273   0.00002   0.00000   0.01106   0.01136   4.21408
   Z29       12.20865  -0.00006   0.00000  -0.06418  -0.05949  12.14917
         Item               Value     Threshold  Converged?
 Maximum Force            0.000186     0.000450     YES
 RMS     Force            0.000052     0.000300     YES
 Maximum Displacement     0.081466     0.001800     NO 
 RMS     Displacement     0.032136     0.001200     NO 
 Predicted change in Energy=-1.205294D-05
 GradGradGradGradGradGradGradGradGradGradGradGradGradGradGradGradGradGrad

 1\1\GINC-YU-DESKTOP\Force\RwB97XD\6-31(d')\C11H18\YU\25-Jun-2021\0\\# 
 wB97XD/6-31G(d') Force # Integral=(Grid=UltraFineGrid)\\Optimize geome
 try\\0,1\C,-1.21136385,-0.68919013,0.00000214\C,-1.2025443,0.70448481,
 0.00000314\C,0.00883914,1.3936564,0.000003\C,1.21136394,0.68919008,-0.
 00000014\C,1.20254397,-0.70448396,-0.00000214\C,-0.00883905,-1.3936564
 6,-0.000001\H,-2.15672124,-1.22698758,-0.00000775\H,-2.14096168,1.2542
 9727,-0.00001674\H,0.01580234,2.48126378,-0.00001\H,2.15672133,1.22698
 752,-0.00000425\H,2.14096177,-1.25429732,0.00000474\H,-0.01580135,-2.4
 8126341,-0.000001\C,6.5030470583,2.8490061295,6.460540894\C,5.23200505
 83,1.9998611295,6.460540894\C,3.9534940583,2.8395061295,6.460539894\C,
 2.6749830583,1.9998611295,6.460540894\C,1.4039410583,2.8490061295,6.46
 0540894\H,6.5441470583,3.4965481295,5.575123894\H,6.5441490583,3.49654
 41295,7.345961894\H,7.4040100583,2.2239881295,6.460538894\H,5.23094605
 83,1.3389621295,7.339525894\H,5.2309470583,1.3389621295,5.581555894\H,
 3.9534940583,3.5022551295,5.581261894\H,3.9534940583,3.5022571295,7.33
 9816894\H,2.6760410583,1.3389621295,5.581556894\H,2.6760420583,1.33896
 31295,7.339526894\H,1.3628400583,3.4965461295,5.575121894\H,1.36283905
 83,3.4965461295,7.345960894\H,0.5029780583,2.2239881295,6.460540894\\V
 ersion=ES64L-G16RevA.03\State=1-A\HF=-429.8707405\RMSD=2.016e-09\RMSF=
 5.190e-05\Dipole=-0.0105882,-0.0318826,-0.0046792\Quadrupole=1.5002749
 ,1.7960703,-3.2963452,-0.117304,-0.0375924,-0.1947647\PG=C01 [X(C11H18
 )]\\@


 THE ATTENTION SPAN OF A COMPUTER IS AS LONG
 AS ITS EXTENSION CORD.
 Job cpu time:       0 days  0 hours  2 minutes 23.1 seconds.
 Elapsed time:       0 days  0 hours  0 minutes  9.0 seconds.
 File lengths (MBytes):  RWF=     25 Int=      0 D2E=      0 Chk=     43 Scr=      1
 Normal termination of Gaussian 16 at Fri Jun 25 22:43:29 2021.
